Urea                                                                    
SP        UHF                                                         Gen                 
Number of atoms                            I                8
Info1-9                                    I   N=           9
         111         111           0           0           0         110
           1           1           2
Charge                                     I                0
Multiplicity                               I                3
Number of electrons                        I               32
Number of alpha electrons                  I               17
Number of beta electrons                   I               15
Number of basis functions                  I               96
Number of independent functions            I               96
Number of point charges in /Mol/           I                0
Number of translation vectors              I                0
Atomic numbers                             I   N=           8
           6           8           7           7           1           1
           1           1
Nuclear charges                            R   N=           8
  6.00000000E+00  8.00000000E+00  7.00000000E+00  7.00000000E+00  1.00000000E+00
  1.00000000E+00  1.00000000E+00  1.00000000E+00
Current cartesian coordinates              R   N=          24
  4.72431533E+00  9.44863066E+00  9.65895718E+00  4.72431533E+00  9.44863066E+00
  1.20341540E+01  4.72431533E+00  1.16074538E+01  8.33936142E+00  4.72431533E+00
  7.28980753E+00  8.33936142E+00  4.72431533E+00  1.32826960E+01  9.25644552E+00
  4.72431533E+00  5.61456531E+00  9.25644552E+00  4.72431533E+00  1.15738167E+01
  6.43206084E+00  4.72431533E+00  7.32344466E+00  6.43206084E+00
Force Field                                I                0
Int Atom Types                             I   N=           8
           0           0           0           0           0           0
           0           0
MM charges                                 R   N=           8
  0.00000000E+00  0.00000000E+00  0.00000000E+00  0.00000000E+00  0.00000000E+00
  0.00000000E+00  0.00000000E+00  0.00000000E+00
Integer atomic weights                     I   N=           8
          12          16          14          14           1           1
           1           1
Real atomic weights                        R   N=           8
  1.20000000E+01  1.59949146E+01  1.40030740E+01  1.40030740E+01  1.00782504E+00
  1.00782504E+00  1.00782504E+00  1.00782504E+00
Atom fragment info                         I   N=           8
           0           0           0           0           0           0
           0           0
Atom residue num                           I   N=           8
           0           0           0           0           0           0
           0           0
Nuclear spins                              I   N=           8
           0           0           2           2           1           1
           1           1
Nuclear ZEff                               R   N=           8
 -3.60000000E+00 -5.60000000E+00 -4.55000000E+00 -4.55000000E+00 -1.00000000E+00
 -1.00000000E+00 -1.00000000E+00 -1.00000000E+00
Nuclear QMom                               R   N=           8
  0.00000000E+00  0.00000000E+00  2.04400000E+00  2.04400000E+00  0.00000000E+00
  0.00000000E+00  0.00000000E+00  0.00000000E+00
Nuclear GFac                               R   N=           8
  0.00000000E+00  0.00000000E+00  4.03761000E-01  4.03761000E-01  2.79284600E+00
  2.79284600E+00  2.79284600E+00  2.79284600E+00
MicOpt                                     I   N=           8
          -1          -1          -1          -1          -1          -1
          -1          -1
Number of contracted shells                I               48
Number of primitive shells                 I               92
Pure/Cartesian d shells                    I                0
Pure/Cartesian f shells                    I                0
Highest angular momentum                   I                2
Largest degree of contraction              I                6
Shell types                                I   N=          48
           0           0           0           0           1           1
           1          -2           0           0           0           0
           1           1           1          -2           0           0
           0           0           1           1           1          -2
           0           0           0           0           1           1
           1          -2           0           0           0           1
           0           0           0           1           0           0
           0           1           0           0           0           1
Number of primitives per shell             I   N=          48
           6           2           1           1           4           1
           1           1           6           2           1           1
           4           1           1           1           6           2
           1           1           4           1           1           1
           6           2           1           1           4           1
           1           1           3           1           1           1
           3           1           1           1           3           1
           1           1           3           1           1           1
Shell to atom map                          I   N=          48
           1           1           1           1           1           1
           1           1           2           2           2           2
           2           2           2           2           3           3
           3           3           3           3           3           3
           4           4           4           4           4           4
           4           4           5           5           5           5
           6           6           6           6           7           7
           7           7           8           8           8           8
Primitive exponents                        R   N=          92
  1.35753497E+04  2.03523337E+03  4.63225624E+02  1.31200196E+02  4.28530159E+01
  1.55841858E+01  6.20671385E+00  2.57648965E+00  4.94110200E-01  1.64407100E-01
  3.46972322E+01  7.95826228E+00  2.37808269E+00  8.14332082E-01  5.66241710E-01
  2.67354500E-01  8.79158420E-01  2.70323826E+04  4.05238714E+03  9.22327227E+02
  2.61240710E+02  8.53546414E+01  3.10350352E+01  1.22608607E+01  4.99870760E+00
  1.09871360E+00  3.56587010E-01  6.32749548E+01  1.46270494E+01  4.45012235E+00
  1.52757996E+00  5.48973500E-01  1.85867110E-01  2.53462130E-01  1.97308006E+04
  2.95789587E+03  6.73221336E+02  1.90682495E+02  6.22954419E+01  2.26541612E+01
  8.97914774E+00  3.68630024E+00  7.86539820E-01  2.67799720E-01  4.92003805E+01
  1.13467905E+01  3.42739724E+00  1.17855251E+00  3.78033170E-01  1.47366150E-01
  3.61229490E-01  1.97308006E+04  2.95789587E+03  6.73221336E+02  1.90682495E+02
  6.22954419E+01  2.26541612E+01  8.97914774E+00  3.68630024E+00  7.86539820E-01
  2.67799720E-01  4.92003805E+01  1.13467905E+01  3.42739724E+00  1.17855251E+00
  3.78033170E-01  1.47366150E-01  3.61229490E-01  3.40613410E+01  5.12357460E+00
  1.16466260E+00  4.15745510E-01  1.79511100E-01  8.00000000E-01  3.40613410E+01
  5.12357460E+00  1.16466260E+00  4.15745510E-01  1.79511100E-01  8.00000000E-01
  3.40613410E+01  5.12357460E+00  1.16466260E+00  4.15745510E-01  1.79511100E-01
  8.00000000E-01  3.40613410E+01  5.12357460E+00  1.16466260E+00  4.15745510E-01
  1.79511100E-01  8.00000000E-01
Contraction coefficients                   R   N=          92
  6.06455036E-04  4.69790889E-03  2.43324776E-02  9.73999683E-02  3.01955843E-01
  6.62336091E-01  6.55953085E-01  3.75856333E-01  1.00000000E+00  1.00000000E+00
  1.13272200E-02  7.61696592E-02  3.01922522E-01  7.27850273E-01  1.00000000E+00
  1.00000000E+00  1.00000000E+00  5.72273352E-04  4.43532335E-03  2.30201077E-02
  9.28224907E-02  2.93785000E-01  6.74016045E-01  6.38399370E-01  3.95345871E-01
  1.00000000E+00  1.00000000E+00  1.20183322E-02  8.30054218E-02  3.19917439E-01
  7.07155429E-01  1.00000000E+00  1.00000000E+00  1.00000000E+00  5.86264026E-04
  4.54288206E-03  2.35584135E-02  9.47091933E-02  2.97197849E-01  6.69162469E-01
  6.45966836E-01  3.87005744E-01  1.00000000E+00  1.00000000E+00  1.14488251E-02
  7.84223380E-02  3.08180947E-01  7.20271964E-01  1.00000000E+00  1.00000000E+00
  1.00000000E+00  5.86264026E-04  4.54288206E-03  2.35584135E-02  9.47091933E-02
  2.97197849E-01  6.69162469E-01  6.45966836E-01  3.87005744E-01  1.00000000E+00
  1.00000000E+00  1.14488251E-02  7.84223380E-02  3.08180947E-01  7.20271964E-01
  1.00000000E+00  1.00000000E+00  1.00000000E+00  2.54393072E-02  1.90085949E-01
  8.52441130E-01  1.00000000E+00  1.00000000E+00  1.00000000E+00  2.54393072E-02
  1.90085949E-01  8.52441130E-01  1.00000000E+00  1.00000000E+00  1.00000000E+00
  2.54393072E-02  1.90085949E-01  8.52441130E-01  1.00000000E+00  1.00000000E+00
  1.00000000E+00  2.54393072E-02  1.90085949E-01  8.52441130E-01  1.00000000E+00
  1.00000000E+00  1.00000000E+00
Coordinates of each shell                  R   N=         144
  4.72431533E+00  9.44863066E+00  9.65895718E+00  4.72431533E+00  9.44863066E+00
  9.65895718E+00  4.72431533E+00  9.44863066E+00  9.65895718E+00  4.72431533E+00
  9.44863066E+00  9.65895718E+00  4.72431533E+00  9.44863066E+00  9.65895718E+00
  4.72431533E+00  9.44863066E+00  9.65895718E+00  4.72431533E+00  9.44863066E+00
  9.65895718E+00  4.72431533E+00  9.44863066E+00  9.65895718E+00  4.72431533E+00
  9.44863066E+00  1.20341540E+01  4.72431533E+00  9.44863066E+00  1.20341540E+01
  4.72431533E+00  9.44863066E+00  1.20341540E+01  4.72431533E+00  9.44863066E+00
  1.20341540E+01  4.72431533E+00  9.44863066E+00  1.20341540E+01  4.72431533E+00
  9.44863066E+00  1.20341540E+01  4.72431533E+00  9.44863066E+00  1.20341540E+01
  4.72431533E+00  9.44863066E+00  1.20341540E+01  4.72431533E+00  1.16074538E+01
  8.33936142E+00  4.72431533E+00  1.16074538E+01  8.33936142E+00  4.72431533E+00
  1.16074538E+01  8.33936142E+00  4.72431533E+00  1.16074538E+01  8.33936142E+00
  4.72431533E+00  1.16074538E+01  8.33936142E+00  4.72431533E+00  1.16074538E+01
  8.33936142E+00  4.72431533E+00  1.16074538E+01  8.33936142E+00  4.72431533E+00
  1.16074538E+01  8.33936142E+00  4.72431533E+00  7.28980753E+00  8.33936142E+00
  4.72431533E+00  7.28980753E+00  8.33936142E+00  4.72431533E+00  7.28980753E+00
  8.33936142E+00  4.72431533E+00  7.28980753E+00  8.33936142E+00  4.72431533E+00
  7.28980753E+00  8.33936142E+00  4.72431533E+00  7.28980753E+00  8.33936142E+00
  4.72431533E+00  7.28980753E+00  8.33936142E+00  4.72431533E+00  7.28980753E+00
  8.33936142E+00  4.72431533E+00  1.32826960E+01  9.25644552E+00  4.72431533E+00
  1.32826960E+01  9.25644552E+00  4.72431533E+00  1.32826960E+01  9.25644552E+00
  4.72431533E+00  1.32826960E+01  9.25644552E+00  4.72431533E+00  5.61456531E+00
  9.25644552E+00  4.72431533E+00  5.61456531E+00  9.25644552E+00  4.72431533E+00
  5.61456531E+00  9.25644552E+00  4.72431533E+00  5.61456531E+00  9.25644552E+00
  4.72431533E+00  1.15738167E+01  6.43206084E+00  4.72431533E+00  1.15738167E+01
  6.43206084E+00  4.72431533E+00  1.15738167E+01  6.43206084E+00  4.72431533E+00
  1.15738167E+01  6.43206084E+00  4.72431533E+00  7.32344466E+00  6.43206084E+00
  4.72431533E+00  7.32344466E+00  6.43206084E+00  4.72431533E+00  7.32344466E+00
  6.43206084E+00  4.72431533E+00  7.32344466E+00  6.43206084E+00
Constraint Structure                       R   N=          24
  4.72431533E+00  9.44863066E+00  9.65895718E+00  4.72431533E+00  9.44863066E+00
  1.20341540E+01  4.72431533E+00  1.16074538E+01  8.33936142E+00  4.72431533E+00
  7.28980753E+00  8.33936142E+00  4.72431533E+00  1.32826960E+01  9.25644552E+00
  4.72431533E+00  5.61456531E+00  9.25644552E+00  4.72431533E+00  1.15738167E+01
  6.43206084E+00  4.72431533E+00  7.32344466E+00  6.43206084E+00
Num ILSW                                   I              100
ILSW                                       I   N=         100
           1           0           0           0           2           0
           0           0           0           0           0          -1
           0           0           0           0           0           0
           0           0           0           0           0           0
           1           1           0           0           0           0
           0           0      100000           0          -1           0
           0           0           0           0           0           0
           0           0           0           1           0           0
           0           0           1           0           0           0
           0           0           4          40           0           0
           0           0           0           0           0           0
           0           0           0           0           0           0
           0           0           0           0           0           0
           0           0           0           0           0           0
           0           0           0           0           0           0
           0           0           0           0           0           0
           0           0           0           0
Num RLSW                                   I               40
RLSW                                       R   N=          40
  1.00000000E+00  1.00000000E+00  1.00000000E+00  1.00000000E+00  1.00000000E+00
  0.00000000E+00  0.00000000E+00  1.00000000E+00  0.00000000E+00  0.00000000E+00
  0.00000000E+00  0.00000000E+00  1.00000000E+00  0.00000000E+00  0.00000000E+00
  0.00000000E+00  0.00000000E+00  1.00000000E+00  0.00000000E+00  0.00000000E+00
  0.00000000E+00  0.00000000E+00  1.00000000E+00  0.00000000E+00  0.00000000E+00
  0.00000000E+00  0.00000000E+00  1.00000000E+00  0.00000000E+00  0.00000000E+00
  0.00000000E+00  0.00000000E+00  1.00000000E+00  0.00000000E+00  0.00000000E+00
  0.00000000E+00  0.00000000E+00  0.00000000E+00  1.00000000E+00  1.00000000E+00
MxBond                                     I                3
NBond                                      I   N=           8
           3           1           3           3           1           1
           1           1
IBond                                      I   N=          24
           2           3           4           1           0           0
           1           5           7           1           6           8
           3           0           0           4           0           0
           3           0           0           4           0           0
RBond                                      R   N=          24
  2.00000000E+00  1.41000000E+00  1.41000000E+00  2.00000000E+00  0.00000000E+00
  0.00000000E+00  1.41000000E+00  1.00000000E+00  1.00000000E+00  1.41000000E+00
  1.00000000E+00  1.00000000E+00  1.00000000E+00  0.00000000E+00  0.00000000E+00
  1.00000000E+00  0.00000000E+00  0.00000000E+00  1.00000000E+00  0.00000000E+00
  0.00000000E+00  1.00000000E+00  0.00000000E+00  0.00000000E+00
Virial Ratio                               R      1.997025043804939E+00
SCF Energy                                 R     -2.237499215237081E+02
Total Energy                               R     -2.237499215237081E+02
S**2                                       R      2.044027139179260E+00
S**2 after annihilation                    R      2.000803705461853E+00
RMS Density                                R      3.625198961875628E-09
External E-field                           R   N=          35
  0.00000000E+00  0.00000000E+00  0.00000000E+00  0.00000000E+00  0.00000000E+00
  0.00000000E+00  0.00000000E+00  0.00000000E+00  0.00000000E+00  0.00000000E+00
  0.00000000E+00  0.00000000E+00  0.00000000E+00  0.00000000E+00  0.00000000E+00
  0.00000000E+00  0.00000000E+00  0.00000000E+00  0.00000000E+00  0.00000000E+00
  0.00000000E+00  0.00000000E+00  0.00000000E+00  0.00000000E+00  0.00000000E+00
  0.00000000E+00  0.00000000E+00  0.00000000E+00  0.00000000E+00  0.00000000E+00
  0.00000000E+00  0.00000000E+00  0.00000000E+00  0.00000000E+00  0.00000000E+00
IOpCl                                      I                1
IROHF                                      I                0
Alpha Orbital Energies                     R   N=          96
 -2.03804235E+01 -1.56583556E+01 -1.56583346E+01 -1.12178534E+01 -1.36358116E+00
 -1.25301630E+00 -1.20326691E+00 -8.75114693E-01 -7.75671754E-01 -7.71997578E-01
 -6.97871760E-01 -6.80823157E-01 -5.65184037E-01 -4.95118868E-01 -4.23787641E-01
 -3.43455039E-01 -1.32409674E-01  1.82294624E-01  2.54672373E-01  2.55162557E-01
  2.97334913E-01  3.35659073E-01  3.94765019E-01  4.20084295E-01  4.61346770E-01
  4.70911924E-01  5.07375125E-01  6.14489089E-01  6.40000602E-01  6.82503527E-01
  6.94862472E-01  7.22056218E-01  7.44622089E-01  7.73921996E-01  8.09451878E-01
  8.24771374E-01  8.57951775E-01  8.70866313E-01  9.31632848E-01  9.47455902E-01
  9.77770601E-01  1.00854964E+00  1.08410477E+00  1.11334549E+00  1.11387956E+00
  1.12278208E+00  1.14274605E+00  1.18285469E+00  1.18967739E+00  1.43581431E+00
  1.43763023E+00  1.44514916E+00  1.49729949E+00  1.52328292E+00  1.63824975E+00
  1.70069024E+00  1.75253622E+00  1.97812466E+00  1.99599699E+00  2.04230632E+00
  2.14187379E+00  2.24738267E+00  2.26576169E+00  2.27881016E+00  2.30859960E+00
  2.34677612E+00  2.46490152E+00  2.54078311E+00  2.55065484E+00  2.60921782E+00
  2.61526299E+00  2.63106172E+00  2.72530475E+00  2.74150519E+00  2.82851608E+00
  2.91875879E+00  2.92509956E+00  2.95587861E+00  3.16479895E+00  3.24198557E+00
  3.31283797E+00  3.31355489E+00  3.35547564E+00  3.59530475E+00  3.60885686E+00
  3.64127232E+00  3.80981617E+00  3.87494764E+00  3.89449124E+00  3.93818859E+00
  4.50554873E+00  4.53480130E+00  2.25238754E+01  3.18511450E+01  3.18565731E+01
  4.35061343E+01
Beta Orbital Energies                      R   N=          96
 -2.03733795E+01 -1.56336743E+01 -1.56336563E+01 -1.11937326E+01 -1.29507547E+00
 -1.16862508E+00 -1.16510376E+00 -8.29146687E-01 -7.55382485E-01 -7.50349656E-01
 -6.77528638E-01 -4.81118729E-01 -4.49615709E-01 -3.36063421E-01 -2.76189220E-01
 -4.46244367E-02  1.94668973E-01  2.62657532E-01  2.69125595E-01  3.03000609E-01
  3.43847504E-01  3.61907529E-01  4.21104738E-01  4.71014492E-01  4.81595057E-01
  5.22790336E-01  5.33076351E-01  6.57648475E-01  6.69418113E-01  6.88701414E-01
  7.12551481E-01  7.50838227E-01  7.60578751E-01  7.99233636E-01  8.28795933E-01
  8.41162330E-01  8.62443053E-01  8.82899815E-01  9.41746122E-01  9.59392194E-01
  9.85814454E-01  1.03799454E+00  1.09641129E+00  1.14875729E+00  1.15186435E+00
  1.15941466E+00  1.19114820E+00  1.20909912E+00  1.21321300E+00  1.44851270E+00
  1.45176524E+00  1.48859582E+00  1.49940355E+00  1.55249963E+00  1.64948570E+00
  1.71635122E+00  1.77741882E+00  2.01757220E+00  2.02177925E+00  2.06212335E+00
  2.14943736E+00  2.25329955E+00  2.27897501E+00  2.34556079E+00  2.35144761E+00
  2.38621134E+00  2.48215585E+00  2.55974609E+00  2.56790000E+00  2.61264916E+00
  2.62773011E+00  2.69315723E+00  2.76110848E+00  2.78857790E+00  2.85142071E+00
  2.93006422E+00  2.93469318E+00  2.96156626E+00  3.17309625E+00  3.24884071E+00
  3.32060529E+00  3.34555554E+00  3.37609247E+00  3.59838850E+00  3.60804973E+00
  3.65019505E+00  3.81500504E+00  3.89773893E+00  3.94008822E+00  3.94775702E+00
  4.52060632E+00  4.54728005E+00  2.25406761E+01  3.18679574E+01  3.18736367E+01
  4.35107962E+01
Alpha MO coefficients                      R   N=        9216
 -1.33386155E-05 -5.05736068E-05  9.84930308E-04  2.76258837E-03  1.33817813E-15
  1.10995193E-15  6.35048322E-04 -2.31558049E-15 -1.66970599E-15 -1.17214717E-03
  2.75663641E-15  3.15382742E-15  6.70817189E-03 -4.74401162E-05  1.56363136E-16
 -7.02199009E-16  4.07381767E-05  4.67977186E-16  4.35510134E-01  6.42799943E-01
  2.14005364E-02 -9.92596664E-03  3.25837546E-17  1.41210479E-15 -2.36339913E-03
  3.48467096E-16  1.65293742E-16  2.41861532E-03 -6.28040094E-16 -1.49979925E-15
  2.19025561E-03 -1.12375435E-03  5.09003816E-16  1.46778970E-15 -1.55841179E-04
  2.45874317E-16 -3.07315856E-06  2.57241381E-05 -2.54615779E-04  1.76605721E-03
  8.25912609E-16  1.30798954E-04 -1.17973343E-05 -3.19473079E-16 -9.20928978E-04
  1.40505847E-05  5.31427013E-16 -3.21049594E-04 -8.52844171E-04 -5.25484081E-04
 -6.49213497E-17  2.90373212E-04 -5.48296905E-04  4.25585180E-16 -3.07315855E-06
  2.57241381E-05 -2.54615779E-04  1.76605721E-03 -5.13116895E-16 -1.30798954E-04
 -1.17973343E-05 -7.71024462E-16  9.20928978E-04  1.40505847E-05 -1.14300782E-15
  3.21049594E-04 -8.52844171E-04 -5.25484081E-04 -5.75972692E-18 -2.90373212E-04
 -5.48296905E-04 -1.95886280E-16 -2.14121704E-05 -3.04752511E-04  2.32050326E-04
  4.50298108E-16  8.74602267E-06  1.25204040E-04 -2.14121704E-05 -3.04752511E-04
  2.32050326E-04 -1.59110817E-16 -8.74602267E-06  1.25204040E-04  3.74762232E-05
  5.16800136E-05 -7.56359770E-04  4.37999761E-16  1.86512010E-04 -5.13380498E-05
  3.74762232E-05  5.16800136E-05 -7.56359770E-04 -9.85105575E-17 -1.86512010E-04
 -5.13380498E-05  1.42344494E-13 -4.29069074E-12  1.55572637E-10  8.29766556E-10
 -1.39507409E-16  5.13567074E-04 -3.58561123E-11 -1.92999000E-15 -7.12043799E-04
  1.02321573E-11  5.43606509E-15  3.74873750E-03 -3.39282339E-10  1.01611996E-12
  5.22115529E-17 -2.79213396E-05 -1.06831201E-11 -4.47088691E-16  2.95576047E-13
  2.44914390E-12 -7.05254424E-12  1.63078422E-11 -8.04119601E-16  4.52090929E-05
  6.66314873E-12  1.41225753E-15 -3.39231854E-04 -1.21838215E-11 -2.26618126E-15
 -2.22624488E-04 -3.97141911E-11  2.66396859E-11  1.13320196E-15  1.86601689E-04
 -3.63190326E-11  2.51047521E-16  3.17127138E-01  4.45744826E-01  1.54840005E-02
 -6.91306088E-03 -1.05061726E-17 -5.29063331E-05 -3.11732581E-05 -2.59821592E-16
  4.99380120E-04 -1.07214182E-03 -5.84633610E-16  1.68263105E-03  1.94127898E-04
 -1.17796230E-04 -2.65886624E-16  2.44477056E-04  8.52709417E-04  5.94650134E-16
 -3.17127046E-01 -4.45744697E-01 -1.54839961E-02  6.91305919E-03  1.70114835E-16
 -5.29063103E-05  3.11732267E-05 -4.31661040E-16  4.99379631E-04  1.07214169E-03
 -7.26712929E-16  1.68263078E-03 -1.94128206E-04  1.17796346E-04 -4.96805020E-16
  2.44476786E-04 -8.52709300E-04 -1.17047245E-15  6.62001924E-05  8.00641897E-04
 -6.70183774E-04 -2.43734738E-16  1.07485146E-04  8.71363301E-05 -6.62001670E-05
 -8.00642158E-04  6.70183904E-04 -1.21540646E-16  1.07484980E-04 -8.71362703E-05
  5.42979061E-05  8.72964730E-05  6.15493337E-04 -2.22456356E-17 -9.84576134E-05
 -3.71875373E-04 -5.42978773E-05 -8.72966459E-05 -6.15493377E-04  8.22948063E-17
 -9.84576364E-05  3.71875221E-04  9.84730348E-07 -2.95947824E-05  1.07337315E-03
  5.72503968E-03  2.67858631E-15 -7.44326785E-11 -2.47403468E-04 -3.70131432E-15
  1.03196918E-10  7.05905177E-05  1.13845943E-15 -5.43298399E-10 -2.34084880E-03
  7.01996429E-06  2.85237063E-16  4.04475152E-12 -7.36960763E-05 -1.89478368E-16
  2.03476545E-06  1.68904549E-05 -4.86671752E-05  1.12495645E-04  2.04087847E-16
 -6.55144011E-12  4.59764517E-05 -2.27962495E-16  4.91648948E-11 -8.40665742E-05
 -1.81650940E-17  3.22645392E-11 -2.74010479E-04  1.83810089E-04 -1.57857783E-17
 -2.70422386E-11 -2.50593899E-04  1.27306983E-16  3.17128835E-01  4.45759237E-01
  1.52500686E-02 -5.83571526E-03 -3.97894503E-16 -7.85618026E-05 -1.08255459E-04
  1.05714315E-15  1.68849485E-03 -4.46577680E-04 -2.05946105E-16  9.36110527E-04
 -1.06245777E-03  3.99508531E-04  1.24489621E-16  9.31995548E-04  4.03658682E-04
 -1.13911714E-16  3.17128927E-01  4.45759366E-01  1.52500731E-02 -5.83571726E-03
  1.24974830E-17  7.85618180E-05 -1.08255468E-04 -1.35477466E-16 -1.68849499E-03
 -4.46577991E-04  1.75512501E-16 -9.36111015E-04 -1.06245772E-03  3.99508497E-04
 -3.11668975E-17 -9.31995619E-04  4.03658929E-04  1.12018685E-16  8.73374536E-05
 -8.99582847E-04  4.49059850E-04  6.98565726E-17  5.71882415E-04  2.06251154E-04
  8.73374728E-05 -8.99582615E-04  4.49059656E-04  3.18491926E-17 -5.71882446E-04
  2.06251180E-04  9.94484195E-05 -5.96353906E-04 -1.38119560E-04 -8.42756693E-17
  7.90350583E-05 -5.23422608E-04  9.94484352E-05 -5.96353881E-04 -1.38119381E-04
 -3.01836677E-16 -7.90350298E-05 -5.23422716E-04  4.66780789E-01  6.12579129E-01
  2.58392499E-02 -1.85773446E-03 -5.26958329E-16  3.06234703E-14 -2.60815991E-03
  1.54188276E-15 -2.95184047E-14  2.67476785E-03 -1.13157548E-15 -2.85863518E-15
 -4.47130760E-03  5.55088569E-05 -7.28419133E-17  1.24502706E-15 -4.52022203E-05
  3.52385468E-16 -1.06131790E-04 -2.57626233E-04  6.89450246E-04 -3.47055149E-04
  5.05033226E-16 -6.27125568E-16 -4.83847648E-04 -9.03506534E-16  3.11604633E-15
  7.89579016E-04  4.81886401E-16 -4.27353129E-15  9.02785936E-04 -1.42007893E-03
 -1.40599396E-16  1.25732100E-15  8.05174942E-05 -8.77050320E-17 -1.14138500E-04
 -2.63135713E-04  1.10526172E-03 -2.76795006E-03 -1.12533313E-16 -6.29045590E-04
  3.19064601E-04 -4.20765382E-16  2.98465185E-03 -1.62233557E-03 -1.14644861E-16
  5.87948819E-04  3.64803961E-04  9.77919338E-04 -2.52305696E-16  1.48852610E-03
  1.18259817E-03 -2.10245228E-16 -1.14138500E-04 -2.63135713E-04  1.10526172E-03
 -2.76795006E-03  1.37578794E-16  6.29045590E-04  3.19064601E-04  5.36380799E-16
 -2.98465185E-03 -1.62233557E-03  2.58945421E-16 -5.87948819E-04  3.64803961E-04
  9.77919338E-04  2.04107893E-16 -1.48852610E-03  1.18259817E-03  1.55579852E-16
 -8.03304766E-05 -5.25579476E-04 -9.59111956E-05 -7.87908787E-17  2.32568325E-04
 -1.28357327E-04 -8.03304766E-05 -5.25579476E-04 -9.59111955E-05  1.05201061E-16
 -2.32568325E-04 -1.28357327E-04 -8.14291146E-05 -1.15245037E-03  7.27916535E-04
 -3.61531797E-16  4.38220449E-05 -2.50166393E-04 -8.14291146E-05 -1.15245037E-03
  7.27916535E-04  1.68145846E-16 -4.38220449E-05 -2.50166393E-04 -5.91999947E-02
 -1.28974069E-01  2.66506650E-01  6.91902921E-02 -6.80476665E-16  1.52580359E-12
 -1.54922447E-02  6.05413869E-16  5.06402997E-13  1.43002435E-03  4.78037305E-16
  5.61728898E-13  7.95055176E-04  9.71382861E-03 -2.60822404E-16 -3.44726885E-13
 -1.14896951E-02  2.71931923E-16 -3.32537048E-02 -8.07122118E-02  1.42294644E-01
  1.54086612E-01 -4.57423986E-16  1.81772037E-13 -4.64897854E-02  4.74843401E-16
  1.45736761E-13 -3.34897077E-02 -6.49565394E-16  1.63556549E-14  5.57537235E-03
 -2.63703291E-03  1.15776000E-16  6.24726253E-15  1.17005747E-03  1.23589717E-16
 -5.70169865E-02 -1.33020799E-01  2.46437826E-01  2.34893917E-01  6.70773709E-17
 -3.42245612E-02  1.49795696E-02  3.00752389E-16 -3.79589260E-02  1.66911768E-02
 -3.89167601E-16 -6.27948031E-03  4.38469319E-03 -8.36851578E-03 -2.31609573E-16
 -9.72036832E-03 -2.72865560E-03  3.78133064E-16 -5.70169865E-02 -1.33020799E-01
  2.46437826E-01  2.34893917E-01 -1.10511276E-16  3.42245612E-02  1.49795696E-02
 -8.39644224E-16  3.79589260E-02  1.66911768E-02  4.16959582E-16  6.27948031E-03
  4.38469319E-03 -8.36851578E-03  3.92817293E-17  9.72036832E-03 -2.72865560E-03
 -1.34242270E-16  3.65026669E-02  3.30648725E-02  1.33442218E-02 -1.33001017E-17
 -1.22928614E-02 -4.87113531E-03  3.65026669E-02  3.30648725E-02  1.33442218E-02
 -1.43771269E-16  1.22928613E-02 -4.87113531E-03  3.98513808E-02  3.94213993E-02
  1.67611713E-02 -8.68567469E-17 -1.84325633E-03  1.39620318E-02  3.98513808E-02
  3.94213993E-02  1.67611713E-02  1.08980554E-16  1.84325633E-03  1.39620318E-02
  1.49673330E-12  3.27820594E-12 -6.92938634E-12 -3.00688886E-12 -7.82502812E-16
  1.00864575E-01 -2.18303930E-12  3.07205863E-15  3.23581576E-02 -7.82649631E-13
 -5.42550542E-15  1.04282275E-02 -7.93755460E-13 -6.72422592E-13  1.42977048E-16
 -2.01770193E-02  2.98025039E-14 -1.34559182E-17  2.00032291E-12  4.85443845E-12
 -8.56092445E-12 -9.87427155E-12  2.38746070E-16  1.31700489E-02  2.19629418E-12
  2.69272807E-16  1.11120870E-02  1.69926294E-12  1.16464837E-15  8.08821014E-03
 -5.50081139E-13  2.09315750E-13 -1.21064760E-15 -4.38621393E-03 -3.22021912E-14
 -1.16198133E-16 -7.01815264E-02 -1.64013605E-01  3.05238839E-01  3.20939731E-01
 -4.39244050E-16  7.15379840E-03  3.93794124E-03  4.46399022E-16 -1.91416666E-03
  9.88229165E-03  7.70598407E-16  5.16951796E-03 -5.55172349E-03 -3.88108187E-03
  6.03721986E-16 -2.52827744E-03  1.73777259E-03 -6.00216821E-16  7.01815264E-02
  1.64013605E-01 -3.05238839E-01 -3.20939731E-01  3.45225421E-17  7.15379840E-03
 -3.93794125E-03  4.77424536E-16 -1.91416666E-03 -9.88229165E-03  1.01581779E-15
  5.16951796E-03  5.55172349E-03  3.88108187E-03  2.95276548E-16 -2.52827744E-03
 -1.73777259E-03  6.93833190E-16  5.88265988E-02  4.40911287E-02  2.22014371E-02
 -1.03864510E-16 -1.46804121E-02 -8.61917167E-03 -5.88265988E-02 -4.40911287E-02
 -2.22014371E-02 -3.60575928E-16 -1.46804121E-02  8.61917167E-03  5.61756880E-02
  4.84168900E-02  1.89851709E-02  5.61976480E-17  4.13910699E-04  1.75284667E-02
 -5.61756880E-02 -4.84168900E-02 -1.89851709E-02 -3.40714709E-16  4.13910699E-04
 -1.75284667E-02 -2.49728751E-02 -5.52199974E-02  1.23670616E-01  8.01011232E-02
 -1.50440074E-15  2.06779864E-12  1.43888062E-01  3.21685402E-15  6.38918101E-13
  4.64883270E-02 -4.22802918E-15  2.25161562E-13  4.48485705E-02  2.68655702E-02
 -9.30099139E-17 -3.55711111E-13  7.48384895E-03  2.33265163E-16 -8.21365305E-02
 -1.99270682E-01  3.50756381E-01  4.21509625E-01 -4.57186417E-16  3.27917224E-13
 -7.68114246E-02  6.98476515E-16  2.77692464E-13 -6.35313012E-02  1.59903540E-16
  3.12932966E-13  2.83235442E-02 -1.03010195E-02 -6.12528896E-16 -1.56447751E-13
  1.07293712E-03  1.04379468E-16  3.25213837E-02  7.60495671E-02 -1.42494217E-01
 -1.55386145E-01  7.67849267E-16 -3.82871530E-03  2.83611480E-02  5.49190650E-16
 -2.10243324E-03  1.88287229E-02  1.07864620E-15  1.47121405E-03  2.35730543E-02
  1.04689174E-02  2.15722676E-16 -7.47911078E-03  4.17318524E-04 -2.19275052E-16
  3.25213837E-02  7.60495671E-02 -1.42494217E-01 -1.55386145E-01 -5.79174366E-16
  3.82871530E-03  2.83611480E-02 -1.53059805E-16  2.10243324E-03  1.88287229E-02