         144 PROCESSORS WORKING

         
 *******************************************************************************
 *                                                                             *
 *                               CRYSTAL14                                     *
 *                      public : 1.0.3 - Sep 1st, 2014                         *
 *                       HTTP://WWW.CRYSTAL.UNITO.IT                           *
 *                                                                             *
 *                              MAIN AUTHORS                                   *
 *                                                                             *
 *  R. DOVESI(1,11), V.R. SAUNDERS(2), C. ROETTI(1,11), R. ORLANDO(1,11),      *
 *  C.M. ZICOVICH-WILSON(1,3), F. PASCALE(4), B. CIVALLERI(1,11),              *
 *  K. DOLL(5), N.M. HARRISON(2,6), I. J. BUSH(7), Ph. D'ARCO(8),              *
 *  M. LLUNELL(9), M. CAUSA'(10), Y. NOEL(8)                                   *
 *                                                                             *
 *        CONTRIBUTIONS TO THE CURRENT RELEASE HAVE BEEN GIVEN BY              *
 *                                                                             *
 *  L. MASCHIO(1,11), S. CASASSA(1,11), A. ERBA(1,11), M. FERRABONE(1,11),     *
 *  M. DE LA PIERRE(1,11), M. FERRERO(1,11), V. LACIVITA(1,11),                *
 *  J. BAIMA(1,11), E. ALBANESE(1,11), M.F. PEINTINGER(12), R. BAST(13),       *
 *  M. RERAT(14), B. KIRTMAN(15), R. DEMICHELIS(1,16)                          *
 *                                                                             *
 * (1) THEORETICAL CHEMISTRY GROUP - UNIVERSITA' DI TORINO - TORINO (ITALY)    *
 *     http://www.crystal.unito.it                                             *
 * (2) COMPUTATIONAL SCIENCE & ENGINEERING DEPARTMENT - STFC DARESBURY (UK)    *
 *     http://www.stfc.ac.uk/CSE/randd/cmg/CRYSTAL/25806.aspx                  *
 * (3) UNIVERSIDAD AUTONOMA DEL ESTADO DE MORELOS - CUERNAVACA (MEXICO)        *
 * (4) UNIVERSITE' DE LORRAINE - NANCY (FRANCE)                                *
 * (5) UNIVERSITAET ULM - ULM (GERMANY); (6) IMPERIAL COLLEGE - LONDON (UK)    *
 * (7) NAG - OXFORD (UK); (8) UPMC - SORBONNE UNIVERSITES - PARIS (FRANCE)     *
 * (9) UNIVERSIDAD DE BARCELONA - BARCELONA (SPAIN)                            *
 *(10) UNIVERSITA' DI NAPOLI "FEDERICO II" - NAPOLI (ITALY)                    *
 *(11) NIS - NANOSTRUCTURED INTERFACES AND SURFACES - TORINO (ITALY)           *
 *(12) MPI FUER CHEMISCHE ENERGIEKONVERSION - MUELHEIM AN DER RUHR (GERMANY)   *
 *(13) UNIVERSITY OF STOCKHOLM - STOCKHOLM (SWEDEN)                            *
 *(14) UNIVERSITE' DE PAU ET DES PAYS DE L'ADOUR - PAU (FRANCE)                *
 *(15) UNIVERSITY OF CALIFORNIA SANTA BARBARA - SANTA BARBARA (USA)            *
 *(16) CURTIN UNIVERSITY - PERTH (AUSTRALIA)                                   *
 *                                                                             *
 ********************************************************************************
 EEEEEEEEEE STARTING  DATE 29 04 2017 TIME 10:37:11.3

 *******************************************************************************
 YTiO3 BULK: PBEPBE (Y3+)                                                        
 CRYSTAL - PROPERTIES - TYPE OF CALCULATION :  UNRESTRICTED OPEN SHELL
 *******************************************************************************
 SPIN POLARIZED SYSTEM: SUMMED SPIN DENSITY    4.00000000

 KOHN-SHAM HAMILTONIAN

 (EXCHANGE)[CORRELATION] FUNCTIONAL:(PERDEW-BURKE-ERNZERHOF)[PERDEW-BURKE-ERNZERHOF]


 HYBRID EXCHANGE - PERCENTAGE OF FOCK EXCHANGE    33.3333

 SPIN POLARIZED DFT SELECTED

 DIRECT LATTICE VECTOR COMPONENTS (ANGSTROM)
         5.69000    0.00000    0.00000
         0.00000    7.60940    0.00000
         0.00000    0.00000    5.33500

 LATTICE PARAMETERS  (ANGSTROM AND DEGREES) - PRIMITIVE CELL
       A          B          C         ALPHA      BETA     GAMMA        VOLUME
    5.69000    7.60940    5.33500     90.0000   90.0000   90.0000     230.99209
 *******************************************************************************
 N. OF ATOMS PER CELL        20 COULOMB OVERLAP TOL          (T1) 10**   -7
 NUMBER OF SHELLS           108 COULOMB PENETRATION TOL      (T2) 10**   -7
 NUMBER OF AO               436 EXCHANGE OVERLAP TOL         (T3) 10**   -7
 N. OF ELECTRONS PER CELL   188 EXCHANGE PSEUDO OVP (F(G))   (T4) 10**   -7
 CORE ELECTRONS PER CELL     24 EXCHANGE PSEUDO OVP (P(G))   (T5) 10**  -14
 N. OF SYMMETRY OPERATORS     8 POLE ORDER IN MONO ZONE                   4
 CORE  PSEUDO POTENTIAL         TOL. ON PSEUDO              (TP) 10**- 6
 *******************************************************************************
   ATOM N.AT.  SHELL    X(A)      Y(A)      Z(A)      EXAD       N.ELECT.
 *******************************************************************************
    1  239 Y     3     0.418     1.902    -0.112   3.319E-01       8.534
    2  239 Y     3     2.427    -1.902     2.555   3.319E-01       8.534
    3  239 Y     3    -2.427     1.902    -2.555   3.319E-01       8.534
    4  239 Y     3    -0.418    -1.902     0.112   3.319E-01       8.534
    5  222 TI    6     2.845     0.000     0.000   3.563E-01       9.804
    6  222 TI    6     0.000     0.000     2.667   3.563E-01       9.804
    7  222 TI    6     0.000     3.805     2.667   3.563E-01       9.804
    8  222 TI    6     2.845     3.805     0.000   3.563E-01       9.804
    9    8 O     6     2.593     1.902     0.645   3.000E-01       9.526
   10    8 O     6     0.252    -1.902    -2.022   3.000E-01       9.526
   11    8 O     6    -0.252     1.902     2.022   3.000E-01       9.526
   12    8 O     6    -2.593    -1.902    -0.645   3.000E-01       9.526
   13    8 O     6     1.761     0.443    -1.652   3.000E-01       9.568
   14    8 O     6     1.084    -0.443     1.015   3.000E-01       9.568
   15    8 O     6    -1.084     3.362    -1.015   3.000E-01       9.568
   16    8 O     6    -1.761    -3.362     1.652   3.000E-01       9.568
   17    8 O     6    -1.761    -0.443     1.652   3.000E-01       9.568
   18    8 O     6    -1.084     0.443    -1.015   3.000E-01       9.568
   19    8 O     6     1.084    -3.362     1.015   3.000E-01       9.568
   20    8 O     6     1.761     3.362    -1.652   3.000E-01       9.568
 *******************************************************************************
 DE(K)                   0.000E+00  ENERGY LEVEL SHIFTING        0.30000
 TOTAL ENERGY -1.2881562471200E+03  CONVERGENCE ON ENER       -9.483E-08
 KIN. ENERGY   1.0441420833125E+03  VIR. COEFF.           9.37274598E-01
 N. OF SCF CYCLES              126  FERMI ENERGY              -0.481E+00
 WEIGHT OF F(I) IN F(I+1)      30
 SHRINK. FACT.(MONKH.)     8  8  8  SHRINKING FACTOR(GILAT NET)        8
 NUMBER OF K POINTS IN THE IBZ 125  CELL VOLUME (A.U.)       1558.811897
 *******************************************************************************

 GCALCO - MAX INDICES DIRECT LATTICE VECTOR    16    11    17
 NO.OF VECTORS CREATED 6999 STARS 1052 RMAX   137.78673 BOHR
 TTTTTTTTTTTTTTTTTTTTTTTTTTTTTT gordsh1     TELAPSE        1.40 TCPU        0.06

 MATRIX SIZE: P(G)  962108, F(G)  170624, P(G) IRR   67552, F(G) IRR   24456
 MAX G-VECTOR INDEX FOR 1- AND 2-ELECTRON INTEGRALS  91


 CAPPA:IS1  8;IS2  8;IS3  8; K PTS MONK NET 125; SYMMOPS:K SPACE   8;G SPACE   8


 *******************************************************************************
 *                              STRUCTURE FACTORS                              *
 *******************************************************************************


 H K L INDICES REFER TO THE PRIMITIVE LATTICE


 ************************************************************************
 *                                                                      *
 *                   X-RAY STATIC STRUCTURE FACTORS                     *
 *                                                                      *
 ************************************************************************

 NUMBER OF FACTORS COMPUTED :26075


    ALPHA+BETA ELECTRONS
  H  K  L    PX       PY       PZ     REAL PART   IMAG. PART  THEORETICAL

  0  0  0  0.00000  0.00000  0.00000  0.1880E+03  0.0000E+00  0.1880E+03
  0 -1  0  0.00000 -0.43695  0.00000 -0.4619E-13  0.6084E-13  0.7638E-13
  0  1  0  0.00000  0.43695  0.00000 -0.4619E-13 -0.6084E-13  0.7638E-13
 -1  0  0 -0.58434  0.00000  0.00000  0.1692E-12  0.7745E-12  0.7928E-12
  1  0  0  0.58434  0.00000  0.00000  0.1692E-12 -0.7745E-12  0.7928E-12
  0  0 -1  0.00000  0.00000 -0.62323 -0.2354E-13 -0.3499E-12  0.3507E-12
  0  0  1  0.00000  0.00000  0.62323 -0.2354E-13  0.3499E-12  0.3507E-12
 -1 -1  0 -0.58434 -0.43695  0.00000  0.1098E-12  0.1776E-13  0.1113E-12
 -1  1  0 -0.58434  0.43695  0.00000 -0.1243E-13  0.7994E-14  0.1478E-13
  1 -1  0  0.58434 -0.43695  0.00000 -0.1243E-13 -0.7994E-14  0.1478E-13
  1  1  0  0.58434  0.43695  0.00000  0.1098E-12 -0.1776E-13  0.1113E-12
  0 -1 -1  0.00000 -0.43695 -0.62323  0.3193E+01  0.1910E-12  0.3193E+01
  0 -1  1  0.00000 -0.43695  0.62323 -0.3193E+01 -0.8882E-14  0.3193E+01
  0  1 -1  0.00000  0.43695 -0.62323 -0.3193E+01  0.8882E-14  0.3193E+01
  0  1  1  0.00000  0.43695  0.62323  0.3193E+01 -0.1910E-12  0.3193E+01
 -1  0 -1 -0.58434  0.00000 -0.62323 -0.2311E+02  0.3642E-12  0.2311E+02
 -1  0  1 -0.58434  0.00000  0.62323 -0.2311E+02  0.1066E-11  0.2311E+02
  1  0 -1  0.58434  0.00000 -0.62323 -0.2311E+02 -0.1066E-11  0.2311E+02
  1  0  1  0.58434  0.00000  0.62323 -0.2311E+02 -0.3642E-12  0.2311E+02
  0 -2  0  0.00000 -0.87390  0.00000  0.2173E+02 -0.2256E-12  0.2173E+02
  0  2  0  0.00000  0.87390  0.00000  0.2173E+02  0.2256E-12  0.2173E+02
 -1 -1 -1 -0.58434 -0.43695 -0.62323 -0.9192E+01  0.5329E-13  0.9192E+01
 -1 -1  1 -0.58434 -0.43695  0.62323 -0.9192E+01 -0.1346E-12  0.9192E+01
 -1  1 -1 -0.58434  0.43695 -0.62323  0.9192E+01  0.1439E-12  0.9192E+01
 -1  1  1 -0.58434  0.43695  0.62323  0.9192E+01 -0.8216E-13  0.9192E+01
  1 -1 -1  0.58434 -0.43695 -0.62323  0.9192E+01  0.8216E-13  0.9192E+01
  1 -1  1  0.58434 -0.43695  0.62323  0.9192E+01 -0.1439E-12  0.9192E+01
  1  1 -1  0.58434  0.43695 -0.62323 -0.9192E+01  0.1346E-12  0.9192E+01
  1  1  1  0.58434  0.43695  0.62323 -0.9192E+01 -0.5329E-13  0.9192E+01
 -1 -2  0 -0.58434 -0.87390  0.00000  0.1155E-13  0.9470E-12  0.9471E-12
 -1  2  0 -0.58434  0.87390  0.00000 -0.5240E-13  0.7210E-12  0.7229E-12
  1 -2  0  0.58434 -0.87390  0.00000 -0.5240E-13 -0.7210E-12  0.7229E-12
  1  2  0  0.58434  0.87390  0.00000  0.1155E-13 -0.9470E-12  0.9471E-12
  0 -2 -1  0.00000 -0.87390 -0.62323  0.9504E-13 -0.6088E-12  0.6162E-12
  0 -2  1  0.00000 -0.87390  0.62323  0.3908E-13  0.3459E-12  0.3481E-12
  0  2 -1  0.00000  0.87390 -0.62323  0.3908E-13 -0.3459E-12  0.3481E-12
  0  2  1  0.00000  0.87390  0.62323  0.9504E-13  0.6088E-12  0.6162E-12
 -2  0  0 -1.16869  0.00000  0.00000  0.2285E+02 -0.1415E-11  0.2285E+02
  2  0  0  1.16869  0.00000  0.00000  0.2285E+02  0.1415E-11  0.2285E+02
 -1 -2 -1 -0.58434 -0.87390 -0.62323 -0.1990E+02  0.5600E-12  0.1990E+02
 -1 -2  1 -0.58434 -0.87390  0.62323 -0.1990E+02  0.1451E-11  0.1990E+02
 -1  2 -1 -0.58434  0.87390 -0.62323 -0.1990E+02  0.1106E-12  0.1990E+02
 -1  2  1 -0.58434  0.87390  0.62323 -0.1990E+02  0.1036E-11  0.1990E+02
  1 -2 -1  0.58434 -0.87390 -0.62323 -0.1990E+02 -0.1036E-11  0.1990E+02
  1 -2  1  0.58434 -0.87390  0.62323 -0.1990E+02 -0.1106E-12  0.1990E+02
  1  2 -1  0.58434  0.87390 -0.62323 -0.1990E+02 -0.1451E-11  0.1990E+02
  1  2  1  0.58434  0.87390  0.62323 -0.1990E+02 -0.5600E-12  0.1990E+02
  0  0 -2  0.00000  0.00000 -1.24645  0.8012E+01  0.6191E-12  0.8012E+01
  0  0  2  0.00000  0.00000  1.24645  0.8012E+01 -0.6191E-12  0.8012E+01
 -2 -1  0 -1.16869 -0.43695  0.00000  0.1143E+02  0.2354E-12  0.1143E+02
 -2  1  0 -1.16869  0.43695  0.00000 -0.1143E+02 -0.1030E-12  0.1143E+02
  2 -1  0  1.16869 -0.43695  0.00000 -0.1143E+02  0.1030E-12  0.1143E+02
  2  1  0  1.16869  0.43695  0.00000  0.1143E+02 -0.2354E-12  0.1143E+02
  0 -3  0  0.00000 -1.31085  0.00000 -0.3730E-13 -0.5809E-12  0.5821E-12
  0  3  0  0.00000  1.31085  0.00000 -0.3730E-13  0.5809E-12  0.5821E-12
  0 -1 -2  0.00000 -0.43695 -1.24645 -0.9059E-13  0.8593E-13  0.1249E-12
  0 -1  2  0.00000 -0.43695  1.24645 -0.1137E-12  0.1747E-12  0.2084E-12
  0  1 -2  0.00000  0.43695 -1.24645 -0.1137E-12 -0.1747E-12  0.2084E-12
  0  1  2  0.00000  0.43695  1.24645 -0.9059E-13 -0.8593E-13  0.1249E-12
 -2  0 -1 -1.16869  0.00000 -0.62323 -0.1976E+02 -0.1795E-11  0.1976E+02
 -2  0  1 -1.16869  0.00000  0.62323  0.1976E+02 -0.1105E-11  0.1976E+02
  2  0 -1  1.16869  0.00000 -0.62323  0.1976E+02  0.1105E-11  0.1976E+02
  2  0  1  1.16869  0.00000  0.62323 -0.1976E+02  0.1795E-11  0.1976E+02
 -1  0 -2 -0.58434  0.00000 -1.24645 -0.3439E+02  0.1307E-11  0.3439E+02
 -1  0  2 -0.58434  0.00000  1.24645  0.3439E+02  0.3553E-13  0.3439E+02
  1  0 -2  0.58434  0.00000 -1.24645  0.3439E+02 -0.3553E-13  0.3439E+02
  1  0  2  0.58434  0.00000  1.24645 -0.3439E+02 -0.1307E-11  0.3439E+02
 -2 -1 -1 -1.16869 -0.43695 -0.62323 -0.2348E+02  0.2047E-12  0.2348E+02
 -2 -1  1 -1.16869 -0.43695  0.62323  0.2348E+02  0.1510E-13  0.2348E+02
 -2  1 -1 -1.16869  0.43695 -0.62323  0.2348E+02 -0.1599E-13  0.2348E+02
 -2  1  1 -1.16869  0.43695  0.62323 -0.2348E+02 -0.1785E-12  0.2348E+02
  2 -1 -1  1.16869 -0.43695 -0.62323 -0.2348E+02  0.1785E-12  0.2348E+02
  2 -1  1  1.16869 -0.43695  0.62323  0.2348E+02  0.1599E-13  0.2348E+02
  2  1 -1  1.16869  0.43695 -0.62323  0.2348E+02 -0.1510E-13  0.2348E+02
  2  1  1  1.16869  0.43695  0.62323 -0.2348E+02 -0.2047E-12  0.2348E+02
 -1 -3  0 -0.58434 -1.31085  0.00000  0.8127E-13  0.2487E-12  0.2616E-12
 -1  3  0 -0.58434  1.31085  0.00000 -0.6906E-13  0.2212E-12  0.2317E-12
  1 -3  0  0.58434 -1.31085  0.00000 -0.6906E-13 -0.2212E-12  0.2317E-12
  1  3  0  0.58434  1.31085  0.00000  0.8127E-13 -0.2487E-12  0.2616E-12
 -1 -1 -2 -0.58434 -0.43695 -1.24645  0.2880E+02 -0.6328E-13  0.2880E+02
 -1 -1  2 -0.58434 -0.43695  1.24645 -0.2880E+02 -0.4885E-13  0.2880E+02
 -1  1 -2 -0.58434  0.43695 -1.24645 -0.2880E+02 -0.3242E-13  0.2880E+02
 -1  1  2 -0.58434  0.43695  1.24645  0.2880E+02  0.1932E-13  0.2880E+02
  1 -1 -2  0.58434 -0.43695 -1.24645  0.2880E+02 -0.1932E-13  0.2880E+02
  1 -1  2  0.58434 -0.43695  1.24645 -0.2880E+02  0.3242E-13  0.2880E+02
  1  1 -2  0.58434  0.43695 -1.24645 -0.2880E+02  0.4885E-13  0.2880E+02
  1  1  2  0.58434  0.43695  1.24645  0.2880E+02  0.6328E-13  0.2880E+02
  0 -3 -1  0.00000 -1.31085 -0.62323  0.5121E+02  0.2349E-12  0.5121E+02
  0 -3  1  0.00000 -1.31085  0.62323 -0.5121E+02 -0.2398E-13  0.5121E+02
  0  3 -1  0.00000  1.31085 -0.62323 -0.5121E+02  0.2398E-13  0.5121E+02
  0  3  1  0.00000  1.31085  0.62323  0.5121E+02 -0.2349E-12  0.5121E+02
 -2 -2  0 -1.16869 -0.87390  0.00000 -0.2906E+02 -0.1660E-11  0.2906E+02
 -2  2  0 -1.16869  0.87390  0.00000 -0.2906E+02 -0.1123E-11  0.2906E+02
  2 -2  0  1.16869 -0.87390  0.00000 -0.2906E+02  0.1123E-11  0.2906E+02
  2  2  0  1.16869  0.87390  0.00000 -0.2906E+02  0.1660E-11  0.2906E+02
  0 -2 -2  0.00000 -0.87390 -1.24645 -0.1504E+02  0.6946E-12  0.1504E+02
  0 -2  2  0.00000 -0.87390  1.24645 -0.1504E+02 -0.8642E-12  0.1504E+02
  0  2 -2  0.00000  0.87390 -1.24645 -0.1504E+02  0.8642E-12  0.1504E+02
  0  2  2  0.00000  0.87390  1.24645 -0.1504E+02 -0.6946E-12  0.1504E+02
 -1 -3 -1 -0.58434 -1.31085 -0.62323  0.2210E+02  0.8411E-12  0.2210E+02
 -1 -3  1 -0.58434 -1.31085  0.62323  0.2210E+02  0.7190E-12  0.2210E+02
 -1  3 -1 -0.58434  1.31085 -0.62323 -0.2210E+02 -0.3206E-12  0.2210E+02
 -1  3  1 -0.58434  1.31085  0.62323 -0.2210E+02 -0.4063E-12  0.2210E+02
  1 -3 -1  0.58434 -1.31085 -0.62323 -0.2210E+02  0.4063E-12  0.2210E+02
  1 -3  1  0.58434 -1.31085  0.62323 -0.2210E+02  0.3206E-12  0.2210E+02
  1  3 -1  0.58434  1.31085 -0.62323  0.2210E+02 -0.7190E-12  0.2210E+02
  1  3  1  0.58434  1.31085  0.62323  0.2210E+02 -0.8411E-12  0.2210E+02
 -2 -2 -1 -1.16869 -0.87390 -0.62323 -0.2832E+02 -0.1929E-11  0.2832E+02
 -2 -2  1 -1.16869 -0.87390  0.62323  0.2832E+02 -0.1080E-11  0.2832E+02
 -2  2 -1 -1.16869  0.87390 -0.62323 -0.2832E+02 -0.1636E-11  0.2832E+02
 -2  2  1 -1.16869  0.87390  0.62323  0.2832E+02 -0.8544E-12  0.2832E+02
  2 -2 -1  1.16869 -0.87390 -0.62323  0.2832E+02  0.8544E-12  0.2832E+02
  2 -2  1  1.16869 -0.87390  0.62323 -0.2832E+02  0.1636E-11  0.2832E+02
  2  2 -1  1.16869  0.87390 -0.62323  0.2832E+02  0.1080E-11  0.2832E+02
  2  2  1  1.16869  0.87390  0.62323 -0.2832E+02  0.1929E-11  0.2832E+02
 -1 -2 -2 -0.58434 -0.87390 -1.24645 -0.1487E+02  0.1771E-11  0.1487E+02
 -1 -2  2 -0.58434 -0.87390  1.24645  0.1487E+02  0.2389E-12  0.1487E+02
 -1  2 -2 -0.58434  0.87390 -1.24645 -0.1487E+02  0.1302E-11  0.1487E+02
 -1  2  2 -0.58434  0.87390  1.24645  0.1487E+02 -0.2740E-12  0.1487E+02
  1 -2 -2  0.58434 -0.87390 -1.24645  0.1487E+02  0.2740E-12  0.1487E+02
  1 -2  2  0.58434 -0.87390  1.24645 -0.1487E+02 -0.1302E-11  0.1487E+02
  1  2 -2  0.58434  0.87390 -1.24645  0.1487E+02 -0.2389E-12  0.1487E+02
  1  2  2  0.58434  0.87390  1.24645 -0.1487E+02 -0.1771E-11  0.1487E+02
 -2  0 -2 -1.16869  0.00000 -1.24645  0.4614E+02 -0.7114E-12  0.4614E+02
 -2  0  2 -1.16869  0.00000  1.24645  0.4614E+02 -0.1941E-11  0.4614E+02
  2  0 -2  1.16869  0.00000 -1.24645  0.4614E+02  0.1941E-11  0.4614E+02
  2  0  2  1.16869  0.00000  1.24645  0.4614E+02  0.7114E-12  0.4614E+02
  0 -4  0  0.00000 -1.74780  0.00000  0.5030E+02 -0.3994E-12  0.5030E+02
  0  4  0  0.00000  1.74780  0.00000  0.5030E+02  0.3994E-12  0.5030E+02
 -3  0  0 -1.75303  0.00000  0.00000  0.7772E-13  0.2338E-11  0.2339E-11
  3  0  0  1.75303  0.00000  0.00000  0.7772E-13 -0.2338E-11  0.2339E-11
 -2 -3  0 -1.16869 -1.31085  0.00000  0.2030E+02 -0.7676E-12  0.2030E+02
 -2  3  0 -1.16869  1.31085  0.00000 -0.2030E+02  0.5129E-12  0.2030E+02
  2 -3  0  1.16869 -1.31085  0.00000 -0.2030E+02 -0.5129E-12  0.2030E+02
  2  3  0  1.16869  1.31085  0.00000  0.2030E+02  0.7676E-12  0.2030E+02
 -2 -1 -2 -1.16869 -0.43695 -1.24645 -0.1307E+02  0.1328E-12  0.1307E+02
 -2 -1  2 -1.16869 -0.43695  1.24645 -0.1307E+02  0.1830E-12  0.1307E+02
 -2  1 -2 -1.16869  0.43695 -1.24645  0.1307E+02 -0.1159E-12  0.1307E+02
 -2  1  2 -1.16869  0.43695  1.24645  0.1307E+02 -0.3686E-13  0.1307E+02
  2 -1 -2  1.16869 -0.43695 -1.24645  0.1307E+02  0.3686E-13  0.1307E+02
  2 -1  2  1.16869 -0.43695  1.24645  0.1307E+02  0.1159E-12  0.1307E+02
  2  1 -2  1.16869  0.43695 -1.24645 -0.1307E+02 -0.1830E-12  0.1307E+02
  2  1  2  1.16869  0.43695  1.24645 -0.1307E+02 -0.1328E-12  0.1307E+02
 -3 -1  0 -1.75303 -0.43695  0.00000  0.7994E-13  0.6128E-13  0.1007E-12
 -3  1  0 -1.75303  0.43695  0.00000 -0.2665E-14 -0.5995E-13  0.6001E-13
  3 -1  0  1.75303 -0.43695  0.00000 -0.2665E-14  0.5995E-13  0.6001E-13
  3  1  0  1.75303  0.43695  0.00000  0.7994E-13 -0.6128E-13  0.1007E-12
  0 -3 -2  0.00000 -1.31085 -1.24645 -0.5373E-13 -0.4597E-12  0.4628E-12
  0 -3  2  0.00000 -1.31085  1.24645 -0.2665E-14 -0.4821E-12  0.4821E-12
  0  3 -2  0.00000  1.31085 -1.24645 -0.2665E-14  0.4821E-12  0.4821E-12
  0  3  2  0.00000  1.31085  1.24645 -0.5373E-13  0.4597E-12  0.4628E-12
 -1 -4  0 -0.58434 -1.74780  0.00000  0.9148E-13  0.4901E-12  0.4985E-12
 -1  4  0 -0.58434  1.74780  0.00000 -0.2931E-13  0.4892E-12  0.4900E-12
  1 -4  0  0.58434 -1.74780  0.00000 -0.2931E-13 -0.4892E-12  0.4900E-12
  1  4  0  0.58434  1.74780  0.00000  0.9148E-13 -0.4901E-12  0.4985E-12
  0 -4 -1  0.00000 -1.74780 -0.62323  0.6573E-13 -0.4343E-12  0.4393E-12
  0 -4  1  0.00000 -1.74780  0.62323 -0.2176E-13  0.5103E-12  0.5107E-12
  0  4 -1  0.00000  1.74780 -0.62323 -0.2176E-13 -0.5103E-12  0.5107E-12
  0  4  1  0.00000  1.74780  0.62323  0.6573E-13  0.4343E-12  0.4393E-12
 -3  0 -1 -1.75303  0.00000 -0.62323 -0.3544E+02  0.2013E-11  0.3544E+02
 -3  0  1 -1.75303  0.00000  0.62323 -0.3544E+02  0.2547E-11  0.3544E+02
  3  0 -1  1.75303  0.00000 -0.62323 -0.3544E+02 -0.2547E-11  0.3544E+02
  3  0  1  1.75303  0.00000  0.62323 -0.3544E+02 -0.2013E-11  0.3544E+02
 -2 -3 -1 -1.16869 -1.31085 -0.62323 -0.1144E+02 -0.2385E-12  0.1144E+02
 -2 -3  1 -1.16869 -1.31085  0.62323  0.1144E+02 -0.3517E-12  0.1144E+02
 -2  3 -1 -1.16869  1.31085 -0.62323  0.1144E+02 -0.7283E-13  0.1144E+02
 -2  3  1 -1.16869  1.31085  0.62323 -0.1144E+02 -0.1126E-12  0.1144E+02
  2 -3 -1  1.16869 -1.31085 -0.62323 -0.1144E+02  0.1126E-12  0.1144E+02
  2 -3  1  1.16869 -1.31085  0.62323  0.1144E+02  0.7283E-13  0.1144E+02
  2  3 -1  1.16869  1.31085 -0.62323  0.1144E+02  0.3517E-12  0.1144E+02
  2  3  1  1.16869  1.31085  0.62323 -0.1144E+02  0.2385E-12  0.1144E+02
  0  0 -3  0.00000  0.00000 -1.86968  0.6040E-13 -0.7077E-12  0.7102E-12
  0  0  3  0.00000  0.00000  1.86968  0.6040E-13  0.7077E-12  0.7102E-12
 -1 -3 -2 -0.58434 -1.31085 -1.24645 -0.1132E+02  0.1821E-12  0.1132E+02
 -1 -3  2 -0.58434 -1.31085  1.24645  0.1132E+02  0.1478E-12  0.1132E+02
 -1  3 -2 -0.58434  1.31085 -1.24645  0.1132E+02  0.1861E-12  0.1132E+02
 -1  3  2 -0.58434  1.31085  1.24645 -0.1132E+02  0.2007E-12  0.1132E+02
  1 -3 -2  0.58434 -1.31085 -1.24645 -0.1132E+02 -0.2007E-12  0.1132E+02
  1 -3  2  0.58434 -1.31085  1.24645  0.1132E+02 -0.1861E-12  0.1132E+02
  1  3 -2  0.58434  1.31085 -1.24645  0.1132E+02 -0.1478E-12  0.1132E+02
  1  3  2  0.58434  1.31085  1.24645 -0.1132E+02 -0.1821E-12  0.1132E+02
 -3 -1 -1 -1.75303 -0.43695 -0.62323 -0.1808E+02  0.7638E-13  0.1808E+02
 -3 -1  1 -1.75303 -0.43695  0.62323 -0.1808E+02 -0.3574E-13  0.1808E+02
 -3  1 -1 -1.75303  0.43695 -0.62323  0.1808E+02  0.5596E-13  0.1808E+02
 -3  1  1 -1.75303  0.43695  0.62323  0.1808E+02 -0.1708E-12  0.1808E+02
  3 -1 -1  1.75303 -0.43695 -0.62323  0.1808E+02  0.1708E-12  0.1808E+02
  3 -1  1  1.75303 -0.43695  0.62323  0.1808E+02 -0.5596E-13  0.1808E+02
  3  1 -1  1.75303  0.43695 -0.62323 -0.1808E+02  0.3574E-13  0.1808E+02
  3  1  1  1.75303  0.43695  0.62323 -0.1808E+02 -0.7638E-13  0.1808E+02
 -2 -2 -2 -1.16869 -0.87390 -1.24645  0.2472E+02 -0.5467E-12  0.2472E+02
 -2 -2  2 -1.16869 -0.87390  1.24645  0.2472E+02 -0.2033E-11  0.2472E+02
 -2  2 -2 -1.16869  0.87390 -1.24645  0.2472E+02 -0.4245E-12  0.2472E+02
 -2  2  2 -1.16869  0.87390  1.24645  0.2472E+02 -0.1995E-11  0.2472E+02
  2 -2 -2  1.16869 -0.87390 -1.24645  0.2472E+02  0.1995E-11  0.2472E+02
  2 -2  2  1.16869 -0.87390  1.24645  0.2472E+02  0.4245E-12  0.2472E+02
  2  2 -2  1.16869  0.87390 -1.24645  0.2472E+02  0.2033E-11  0.2472E+02
  2  2  2  1.16869  0.87390  1.24645  0.2472E+02  0.5467E-12  0.2472E+02
  0 -1 -3  0.00000 -0.43695 -1.86968 -0.1556E+02  0.3997E-13  0.1556E+02
  0 -1  3  0.00000 -0.43695  1.86968  0.1556E+02  0.2487E-13  0.1556E+02
  0  1 -3  0.00000  0.43695 -1.86968  0.1556E+02 -0.2487E-13  0.1556E+02
  0  1  3  0.00000  0.43695  1.86968 -0.1556E+02 -0.3997E-13  0.1556E+02
 -1 -4 -1 -0.58434 -1.74780 -0.62323 -0.2090E+02  0.4514E-12  0.2090E+02
 -1 -4  1 -0.58434 -1.74780  0.62323 -0.2090E+02  0.1251E-11  0.2090E+02
 -1  4 -1 -0.58434  1.74780 -0.62323 -0.2090E+02 -0.3695E-12  0.2090E+02
 -1  4  1 -0.58434  1.74780  0.62323 -0.2090E+02  0.4325E-12  0.2090E+02
  1 -4 -1  0.58434 -1.74780 -0.62323 -0.2090E+02 -0.4325E-12  0.2090E+02
  1 -4  1  0.58434 -1.74780  0.62323 -0.2090E+02  0.3695E-12  0.2090E+02
  1  4 -1  0.58434  1.74780 -0.62323 -0.2090E+02 -0.1251E-11  0.2090E+02
  1  4  1  0.58434  1.74780  0.62323 -0.2090E+02 -0.4514E-12  0.2090E+02
 -3 -2  0 -1.75303 -0.87390  0.00000  0.4752E-13  0.2565E-11  0.2565E-11
 -3  2  0 -1.75303  0.87390  0.00000 -0.2887E-13  0.2219E-11  0.2219E-11
  3 -2  0  1.75303 -0.87390  0.00000 -0.2887E-13 -0.2219E-11  0.2219E-11
  3  2  0  1.75303  0.87390  0.00000  0.4752E-13 -0.2565E-11  0.2565E-11
 -1  0 -3 -0.58434  0.00000 -1.86968 -0.1068E+02 -0.4530E-13  0.1068E+02
 -1  0  3 -0.58434  0.00000  1.86968 -0.1068E+02  0.1319E-11  0.1068E+02
  1  0 -3  0.58434  0.00000 -1.86968 -0.1068E+02 -0.1319E-11  0.1068E+02
  1  0  3  0.58434  0.00000  1.86968 -0.1068E+02  0.4530E-13  0.1068E+02
 -1 -1 -3 -0.58434 -0.43695 -1.86968 -0.9380E+01 -0.9592E-13  0.9380E+01
 -1 -1  3 -0.58434 -0.43695  1.86968 -0.9380E+01 -0.6173E-13  0.9380E+01
 -1  1 -3 -0.58434  0.43695 -1.86968  0.9380E+01  0.6062E-13  0.9380E+01
 -1  1  3 -0.58434  0.43695  1.86968  0.9380E+01  0.2798E-13  0.9380E+01
  1 -1 -3  0.58434 -0.43695 -1.86968  0.9380E+01 -0.2798E-13  0.9380E+01
  1 -1  3  0.58434 -0.43695  1.86968  0.9380E+01 -0.6062E-13  0.9380E+01
  1  1 -3  0.58434  0.43695 -1.86968 -0.9380E+01  0.6173E-13  0.9380E+01
  1  1  3  0.58434  0.43695  1.86968 -0.9380E+01  0.9592E-13  0.9380E+01
 -3 -2 -1 -1.75303 -0.87390 -0.62323 -0.1462E+02  0.2229E-11  0.1462E+02
 -3 -2  1 -1.75303 -0.87390  0.62323 -0.1462E+02  0.3025E-11  0.1462E+02
 -3  2 -1 -1.75303  0.87390 -0.62323 -0.1462E+02  0.1706E-11  0.1462E+02
 -3  2  1 -1.75303  0.87390  0.62323 -0.1462E+02  0.2486E-11  0.1462E+02
  3 -2 -1  1.75303 -0.87390 -0.62323 -0.1462E+02 -0.2486E-11  0.1462E+02
  3 -2  1  1.75303 -0.87390  0.62323 -0.1462E+02 -0.1706E-11  0.1462E+02
  3  2 -1  1.75303  0.87390 -0.62323 -0.1462E+02 -0.3025E-11  0.1462E+02
  3  2  1  1.75303  0.87390  0.62323 -0.1462E+02 -0.2229E-11  0.1462E+02
  0 -2 -3  0.00000 -0.87390 -1.86968  0.0000E+00 -0.9908E-12  0.9908E-12
  0 -2  3  0.00000 -0.87390  1.86968  0.8438E-14  0.6941E-12  0.6942E-12
  0  2 -3  0.00000  0.87390 -1.86968  0.8438E-14 -0.6941E-12  0.6942E-12
  0  2  3  0.00000  0.87390  1.86968  0.0000E+00  0.9908E-12  0.9908E-12
 -2 -4  0 -1.16869 -1.74780  0.00000  0.2671E+02 -0.2010E-11  0.2671E+02
 -2  4  0 -1.16869  1.74780  0.00000  0.2671E+02 -0.8709E-12  0.2671E+02
  2 -4  0  1.16869 -1.74780  0.00000  0.2671E+02  0.8709E-12  0.2671E+02
  2  4  0  1.16869  1.74780  0.00000  0.2671E+02  0.2010E-11  0.2671E+02
 -1 -2 -3 -0.58434 -0.87390 -1.86968 -0.3348E+02  0.1177E-13  0.3348E+02
 -1 -2  3 -0.58434 -0.87390  1.86968 -0.3348E+02  0.1665E-11  0.3348E+02
 -1  2 -3 -0.58434  0.87390 -1.86968 -0.3348E+02 -0.2247E-12  0.3348E+02
 -1  2  3 -0.58434  0.87390  1.86968 -0.3348E+02  0.1400E-11  0.3348E+02
  1 -2 -3  0.58434 -0.87390 -1.86968 -0.3348E+02 -0.1400E-11  0.3348E+02
  1 -2  3  0.58434 -0.87390  1.86968 -0.3348E+02  0.2247E-12  0.3348E+02
  1  2 -3  0.58434  0.87390 -1.86968 -0.3348E+02 -0.1665E-11  0.3348E+02
  1  2  3  0.58434  0.87390  1.86968 -0.3348E+02 -0.1177E-13  0.3348E+02
  0 -4 -2  0.00000 -1.74780 -1.24645  0.1528E+02  0.5698E-12  0.1528E+02
  0 -4  2  0.00000 -1.74780  1.24645  0.1528E+02 -0.9592E-12  0.1528E+02
  0  4 -2  0.00000  1.74780 -1.24645  0.1528E+02  0.9592E-12  0.1528E+02
  0  4  2  0.00000  1.74780  1.24645  0.1528E+02 -0.5698E-12  0.1528E+02
 -3  0 -2 -1.75303  0.00000 -1.24645 -0.1637E+01  0.2796E-11  0.1637E+01
 -3  0  2 -1.75303  0.00000  1.24645  0.1637E+01  0.1624E-11  0.1637E+01
  3  0 -2  1.75303  0.00000 -1.24645  0.1637E+01 -0.1624E-11  0.1637E+01
  3  0  2  1.75303  0.00000  1.24645 -0.1637E+01 -0.2796E-11  0.1637E+01
 -2 -3 -2 -1.16869 -1.31085 -1.24645 -0.1043E+02 -0.8389E-12  0.1043E+02
 -2 -3  2 -1.16869 -1.31085  1.24645 -0.1043E+02 -0.7931E-12  0.1043E+02
 -2  3 -2 -1.16869  1.31085 -1.24645  0.1043E+02  0.5074E-12  0.1043E+02
 -2  3  2 -1.16869  1.31085  1.24645  0.1043E+02  0.4301E-12  0.1043E+02
  2 -3 -2  1.16869 -1.31085 -1.24645  0.1043E+02 -0.4301E-12  0.1043E+02
  2 -3  2  1.16869 -1.31085  1.24645  0.1043E+02 -0.5074E-12  0.1043E+02
  2  3 -2  1.16869  1.31085 -1.24645 -0.1043E+02  0.7931E-12  0.1043E+02
  2  3  2  1.16869  1.31085  1.24645 -0.1043E+02  0.8389E-12  0.1043E+02
  0 -5  0  0.00000 -2.18474  0.00000  0.1021E-13 -0.3109E-13  0.3272E-13
  0  5  0  0.00000  2.18474  0.00000  0.1021E-13  0.3109E-13  0.3272E-13
 -3 -3  0 -1.75303 -1.31085  0.00000  0.3821E-13  0.4126E-12  0.4143E-12
 -3  3  0 -1.75303  1.31085  0.00000 -0.8882E-14  0.4929E-13  0.5009E-13
  3 -3  0  1.75303 -1.31085  0.00000 -0.8882E-14 -0.4929E-13  0.5009E-13
  3  3  0  1.75303  1.31085  0.00000  0.3821E-13 -0.4126E-12  0.4143E-12
 -2 -4 -1 -1.16869 -1.74780 -0.62323  0.3854E+01 -0.1905E-11  0.3854E+01
 -2 -4  1 -1.16869 -1.74780  0.62323 -0.3854E+01 -0.1207E-11  0.3854E+01
 -2  4 -1 -1.16869  1.74780 -0.62323  0.3854E+01 -0.1594E-11  0.3854E+01
 -2  4  1 -1.16869  1.74780  0.62323 -0.3854E+01 -0.8917E-12  0.3854E+01
  2 -4 -1  1.16869 -1.74780 -0.62323 -0.3854E+01  0.8917E-12  0.3854E+01
  2 -4  1  1.16869 -1.74780  0.62323  0.3854E+01  0.1594E-11  0.3854E+01
  2  4 -1  1.16869  1.74780 -0.62323 -0.3854E+01  0.1207E-11  0.3854E+01
  2  4  1  1.16869  1.74780  0.62323  0.3854E+01  0.1905E-11  0.3854E+01
 -3 -1 -2 -1.75303 -0.43695 -1.24645  0.3497E+01  0.3553E-14  0.3497E+01
 -3 -1  2 -1.75303 -0.43695  1.24645 -0.3497E+01  0.9637E-13  0.3497E+01
 -3  1 -2 -1.75303  0.43695 -1.24645 -0.3497E+01 -0.3553E-13  0.3497E+01
 -3  1  2 -1.75303  0.43695  1.24645  0.3497E+01  0.1688E-13  0.3497E+01
  3 -1 -2  1.75303 -0.43695 -1.24645  0.3497E+01 -0.1688E-13  0.3497E+01
  3 -1  2  1.75303 -0.43695  1.24645 -0.3497E+01  0.3553E-13  0.3497E+01
  3  1 -2  1.75303  0.43695 -1.24645 -0.3497E+01 -0.9637E-13  0.3497E+01
  3  1  2  1.75303  0.43695  1.24645  0.3497E+01 -0.3553E-14  0.3497E+01
 -2  0 -3 -1.16869  0.00000 -1.86968  0.1616E+02 -0.1819E-11  0.1616E+02
 -2  0  3 -1.16869  0.00000  1.86968 -0.1616E+02 -0.5442E-12  0.1616E+02
  2  0 -3  1.16869  0.00000 -1.86968 -0.1616E+02  0.5442E-12  0.1616E+02
  2  0  3  1.16869  0.00000  1.86968  0.1616E+02  0.1819E-11  0.1616E+02
 -1 -4 -2 -0.58434 -1.74780 -1.24645 -0.5475E+01  0.1399E-11  0.5475E+01
 -1 -4  2 -0.58434 -1.74780  1.24645  0.5475E+01 -0.1070E-12  0.5475E+01
 -1  4 -2 -0.58434  1.74780 -1.24645 -0.5475E+01  0.9914E-12  0.5475E+01
 -1  4  2 -0.58434  1.74780  1.24645  0.5475E+01 -0.5205E-12  0.5475E+01
  1 -4 -2  0.58434 -1.74780 -1.24645  0.5475E+01  0.5205E-12  0.5475E+01
  1 -4  2  0.58434 -1.74780  1.24645 -0.5475E+01 -0.9914E-12  0.5475E+01
  1  4 -2  0.58434  1.74780 -1.24645  0.5475E+01  0.1070E-12  0.5475E+01
  1  4  2  0.58434  1.74780  1.24645 -0.5475E+01 -0.1399E-11  0.5475E+01
 -2 -1 -3 -1.16869 -0.43695 -1.86968 -0.5156E+01  0.6861E-13  0.5156E+01
 -2 -1  3 -1.16869 -0.43695  1.86968  0.5156E+01  0.8660E-13  0.5156E+01
 -2  1 -3 -1.16869  0.43695 -1.86968  0.5156E+01 -0.5618E-13  0.5156E+01
 -2  1  3 -1.16869  0.43695  1.86968 -0.5156E+01 -0.4841E-13  0.5156E+01
  2 -1 -3  1.16869 -0.43695 -1.86968 -0.5156E+01  0.4841E-13  0.5156E+01
  2 -1  3  1.16869 -0.43695  1.86968  0.5156E+01  0.5618E-13  0.5156E+01
  2  1 -3  1.16869  0.43695 -1.86968  0.5156E+01 -0.8660E-13  0.5156E+01
  2  1  3  1.16869  0.43695  1.86968 -0.5156E+01 -0.6861E-13  0.5156E+01
 -1 -5  0 -0.58434 -2.18474  0.00000 -0.2964E-13 -0.2631E-12  0.2648E-12
 -1  5  0 -0.58434  2.18474  0.00000 -0.3242E-13  0.1541E-12  0.1575E-12
  1 -5  0  0.58434 -2.18474  0.00000 -0.3242E-13 -0.1541E-12  0.1575E-12
  1  5  0  0.58434  2.18474  0.00000 -0.2964E-13  0.2631E-12  0.2648E-12
  0 -5 -1  0.00000 -2.18474 -0.62323  0.1668E+02  0.3317E-12  0.1668E+02
  0 -5  1  0.00000 -2.18474  0.62323 -0.1668E+02  0.8393E-13  0.1668E+02
  0  5 -1  0.00000  2.18474 -0.62323 -0.1668E+02 -0.8393E-13  0.1668E+02
  0  5  1  0.00000  2.18474  0.62323  0.1668E+02 -0.3317E-12  0.1668E+02
 -3 -3 -1 -1.75303 -1.31085 -0.62323  0.6501E+01  0.9375E-12  0.6501E+01
 -3 -3  1 -1.75303 -1.31085  0.62323  0.6501E+01  0.8729E-12  0.6501E+01
 -3  3 -1 -1.75303  1.31085 -0.62323 -0.6501E+01 -0.4361E-12  0.6501E+01
 -3  3  1 -1.75303  1.31085  0.62323 -0.6501E+01 -0.5504E-12  0.6501E+01
  3 -3 -1  1.75303 -1.31085 -0.62323 -0.6501E+01  0.5504E-12  0.6501E+01
  3 -3  1  1.75303 -1.31085  0.62323 -0.6501E+01  0.4361E-12  0.6501E+01
  3  3 -1  1.75303  1.31085 -0.62323  0.6501E+01 -0.8729E-12  0.6501E+01
  3  3  1  1.75303  1.31085  0.62323  0.6501E+01 -0.9375E-12  0.6501E+01
  0 -3 -3  0.00000 -1.31085 -1.86968 -0.7421E+00  0.3997E-14  0.7421E+00
  0 -3  3  0.00000 -1.31085  1.86968  0.7421E+00  0.2220E-14  0.7421E+00
  0  3 -3  0.00000  1.31085 -1.86968  0.7421E+00 -0.2220E-14  0.7421E+00
  0  3  3  0.00000  1.31085  1.86968 -0.7421E+00 -0.3997E-14  0.7421E+00
 -3 -2 -2 -1.75303 -0.87390 -1.24645  0.1559E+02  0.3303E-11  0.1559E+02
 -3 -2  2 -1.75303 -0.87390  1.24645 -0.1559E+02  0.1849E-11  0.1559E+02
 -3  2 -2 -1.75303  0.87390 -1.24645  0.1559E+02  0.2691E-11  0.1559E+02
 -3  2  2 -1.75303  0.87390  1.24645 -0.1559E+02  0.1278E-11  0.1559E+02
  3 -2 -2  1.75303 -0.87390 -1.24645 -0.1559E+02 -0.1278E-11  0.1559E+02
  3 -2  2  1.75303 -0.87390  1.24645  0.1559E+02 -0.2691E-11  0.1559E+02
  3  2 -2  1.75303  0.87390 -1.24645 -0.1559E+02 -0.1849E-11  0.1559E+02
  3  2  2  1.75303  0.87390  1.24645  0.1559E+02 -0.3303E-11  0.1559E+02
 -4  0  0 -2.33738  0.00000  0.00000  0.1767E+02 -0.2333E-11  0.1767E+02
  4  0  0  2.33738  0.00000  0.00000  0.1767E+02  0.2333E-11  0.1767E+02
 -1 -5 -1 -0.58434 -2.18474 -0.62323  0.5097E+01  0.6839E-13  0.5097E+01
 -1 -5  1 -0.58434 -2.18474  0.62323  0.5097E+01 -0.1299E-12  0.5097E+01
 -1  5 -1 -0.58434  2.18474 -0.62323 -0.5097E+01  0.2265E-13  0.5097E+01
 -1  5  1 -0.58434  2.18474  0.62323 -0.5097E+01 -0.1605E-12  0.5097E+01
  1 -5 -1  0.58434 -2.18474 -0.62323 -0.5097E+01  0.1605E-12  0.5097E+01
  1 -5  1  0.58434 -2.18474  0.62323 -0.5097E+01 -0.2265E-13  0.5097E+01
  1  5 -1  0.58434  2.18474 -0.62323  0.5097E+01  0.1299E-12  0.5097E+01
  1  5  1  0.58434  2.18474  0.62323  0.5097E+01 -0.6839E-13  0.5097E+01
 -1 -3 -3 -0.58434 -1.31085 -1.86968 -0.2220E+02  0.5456E-12  0.2220E+02
 -1 -3  3 -0.58434 -1.31085  1.86968 -0.2220E+02  0.5846E-12  0.2220E+02
 -1  3 -3 -0.58434  1.31085 -1.86968  0.2220E+02 -0.2969E-12  0.2220E+02
 -1  3  3 -0.58434  1.31085  1.86968  0.2220E+02 -0.3593E-12  0.2220E+02
  1 -3 -3  0.58434 -1.31085 -1.86968  0.2220E+02  0.3593E-12  0.2220E+02
  1 -3  3  0.58434 -1.31085  1.86968  0.2220E+02  0.2969E-12  0.2220E+02
  1  3 -3  0.58434  1.31085 -1.86968 -0.2220E+02 -0.5846E-12  0.2220E+02
  1  3  3  0.58434  1.31085  1.86968 -0.2220E+02 -0.5456E-12  0.2220E+02
 -2 -2 -3 -1.16869 -0.87390 -1.86968  0.1343E+00 -0.2094E-11  0.1343E+00
 -2 -2  3 -1.16869 -0.87390  1.86968 -0.1343E+00 -0.5362E-12  0.1343E+00
 -2  2 -3 -1.16869  0.87390 -1.86968  0.1343E+00 -0.1829E-11  0.1343E+00
 -2  2  3 -1.16869  0.87390  1.86968 -0.1343E+00 -0.2514E-12  0.1343E+00
  2 -2 -3  1.16869 -0.87390 -1.86968 -0.1343E+00  0.2514E-12  0.1343E+00
  2 -2  3  1.16869 -0.87390  1.86968  0.1343E+00  0.1829E-11  0.1343E+00
  2  2 -3  1.16869  0.87390 -1.86968 -0.1343E+00  0.5362E-12  0.1343E+00
  2  2  3  1.16869  0.87390  1.86968  0.1343E+00  0.2094E-11  0.1343E+00
 -4 -1  0 -2.33738 -0.43695  0.00000  0.5075E+00  0.5107E-13  0.5075E+00
 -4  1  0 -2.33738  0.43695  0.00000 -0.5075E+00 -0.3353E-13  0.5075E+00
  4 -1  0  2.33738 -0.43695  0.00000 -0.5075E+00  0.3353E-13  0.5075E+00
  4  1  0  2.33738  0.43695  0.00000  0.5075E+00 -0.5107E-13  0.5075E+00
 -4  0 -1 -2.33738  0.00000 -0.62323  0.3319E+02 -0.2585E-11  0.3319E+02
 -4  0  1 -2.33738  0.00000  0.62323 -0.3319E+02 -0.2066E-11  0.3319E+02
  4  0 -1  2.33738  0.00000 -0.62323 -0.3319E+02  0.2066E-11  0.3319E+02
  4  0  1  2.33738  0.00000  0.62323  0.3319E+02  0.2585E-11  0.3319E+02
 -2 -4 -2 -1.16869 -1.74780 -1.24645  0.1214E+02 -0.8940E-12  0.1214E+02
 -2 -4  2 -1.16869 -1.74780  1.24645  0.1214E+02 -0.2333E-11  0.1214E+02
 -2  4 -2 -1.16869  1.74780 -1.24645  0.1214E+02 -0.2571E-12  0.1214E+02
 -2  4  2 -1.16869  1.74780  1.24645  0.1214E+02 -0.1652E-11  0.1214E+02
  2 -4 -2  1.16869 -1.74780 -1.24645  0.1214E+02  0.1652E-11  0.1214E+02
  2 -4  2  1.16869 -1.74780  1.24645  0.1214E+02  0.2571E-12  0.1214E+02
  2  4 -2  1.16869  1.74780 -1.24645  0.1214E+02  0.2333E-11  0.1214E+02
  2  4  2  1.16869  1.74780  1.24645  0.1214E+02  0.8940E-12  0.1214E+02
 -4 -1 -1 -2.33738 -0.43695 -0.62323 -0.3441E+01  0.2931E-13  0.3441E+01
 -4 -1  1 -2.33738 -0.43695  0.62323  0.3441E+01 -0.4163E-13  0.3441E+01
 -4  1 -1 -2.33738  0.43695 -0.62323  0.3441E+01  0.7638E-13  0.3441E+01
 -4  1  1 -2.33738  0.43695  0.62323 -0.3441E+01 -0.8926E-13  0.3441E+01
  4 -1 -1  2.33738 -0.43695 -0.62323 -0.3441E+01  0.8926E-13  0.3441E+01
  4 -1  1  2.33738 -0.43695  0.62323  0.3441E+01 -0.7638E-13  0.3441E+01
  4  1 -1  2.33738  0.43695 -0.62323  0.3441E+01  0.4163E-13  0.3441E+01
  4  1  1  2.33738  0.43695  0.62323 -0.3441E+01 -0.2931E-13  0.3441E+01
 -3 -4  0 -1.75303 -1.74780  0.00000  0.6928E-13  0.1998E-11  0.2000E-11
 -3  4  0 -1.75303  1.74780  0.00000  0.4774E-13  0.2059E-11  0.2060E-11
  3 -4  0  1.75303 -1.74780  0.00000  0.4774E-13 -0.2059E-11  0.2060E-11
  3  4  0  1.75303  1.74780  0.00000  0.6928E-13 -0.1998E-11  0.2000E-11
 -2 -5  0 -1.16869 -2.18474  0.00000  0.2308E+02  0.1057E-12  0.2308E+02
 -2  5  0 -1.16869  2.18474  0.00000 -0.2308E+02  0.1892E-12  0.2308E+02
  2 -5  0  1.16869 -2.18474  0.00000 -0.2308E+02 -0.1892E-12  0.2308E+02
  2  5  0  1.16869  2.18474  0.00000  0.2308E+02 -0.1057E-12  0.2308E+02
  0  0 -4  0.00000  0.00000 -2.49291 -0.1010E+01  0.1052E-11  0.1010E+01
  0  0  4  0.00000  0.00000  2.49291 -0.1010E+01 -0.1052E-11  0.1010E+01
 -4 -2  0 -2.33738 -0.87390  0.00000  0.4541E+01 -0.2532E-11  0.4541E+01
 -4  2  0 -2.33738  0.87390  0.00000  0.4541E+01 -0.2076E-11  0.4541E+01
  4 -2  0  2.33738 -0.87390  0.00000  0.4541E+01  0.2076E-11  0.4541E+01
  4  2  0  2.33738  0.87390  0.00000  0.4541E+01  0.2532E-11  0.4541E+01
  0 -5 -2  0.00000 -2.18474 -1.24645  0.8171E-13  0.5276E-12  0.5339E-12
  0 -5  2  0.00000 -2.18474  1.24645  0.7705E-13 -0.2595E-13  0.8130E-13
  0  5 -2  0.00000  2.18474 -1.24645  0.7705E-13  0.2595E-13  0.8130E-13
  0  5  2  0.00000  2.18474  1.24645  0.8171E-13 -0.5276E-12  0.5339E-12
 -3 -3 -2 -1.75303 -1.31085 -1.24645 -0.2271E+02  0.3642E-12  0.2271E+02
 -3 -3  2 -1.75303 -1.31085  1.24645  0.2271E+02  0.4445E-12  0.2271E+02
 -3  3 -2 -1.75303  1.31085 -1.24645  0.2271E+02 -0.4885E-14  0.2271E+02
 -3  3  2 -1.75303  1.31085  1.24645 -0.2271E+02  0.4441E-13  0.2271E+02
  3 -3 -2  1.75303 -1.31085 -1.24645 -0.2271E+02 -0.4441E-13  0.2271E+02
  3 -3  2  1.75303 -1.31085  1.24645  0.2271E+02  0.4885E-14  0.2271E+02
  3  3 -2  1.75303  1.31085 -1.24645  0.2271E+02 -0.4445E-12  0.2271E+02
  3  3  2  1.75303  1.31085  1.24645 -0.2271E+02 -0.3642E-12  0.2271E+02
  0 -1 -4  0.00000 -0.43695 -2.49291 -0.3297E-13  0.3375E-13  0.4718E-13
  0 -1  4  0.00000 -0.43695  2.49291 -0.1554E-13  0.4396E-13  0.4663E-13
  0  1 -4  0.00000  0.43695 -2.49291 -0.1554E-13 -0.4396E-13  0.4663E-13
  0  1  4  0.00000  0.43695  2.49291 -0.3297E-13 -0.3375E-13  0.4718E-13
 -3 -4 -1 -1.75303 -1.74780 -0.62323 -0.1444E+02  0.1970E-11  0.1444E+02
 -3 -4  1 -1.75303 -1.74780  0.62323 -0.1444E+02  0.2687E-11  0.1444E+02
 -3  4 -1 -1.75303  1.74780 -0.62323 -0.1444E+02  0.1292E-11  0.1444E+02
 -3  4  1 -1.75303  1.74780  0.62323 -0.1444E+02  0.1950E-11  0.1444E+02
  3 -4 -1  1.75303 -1.74780 -0.62323 -0.1444E+02 -0.1950E-11  0.1444E+02
  3 -4  1  1.75303 -1.74780  0.62323 -0.1444E+02 -0.1292E-11  0.1444E+02
  3  4 -1  1.75303  1.74780 -0.62323 -0.1444E+02 -0.2687E-11  0.1444E+02
  3  4  1  1.75303  1.74780  0.62323 -0.1444E+02 -0.1970E-11  0.1444E+02
 -2 -5 -1 -1.16869 -2.18474 -0.62323 -0.2339E+02  0.2918E-12  0.2339E+02
 -2 -5  1 -1.16869 -2.18474  0.62323  0.2339E+02  0.2613E-12  0.2339E+02
 -2  5 -1 -1.16869  2.18474 -0.62323  0.2339E+02 -0.8660E-14  0.2339E+02
 -2  5  1 -1.16869  2.18474  0.62323 -0.2339E+02 -0.1131E-12  0.2339E+02
  2 -5 -1  1.16869 -2.18474 -0.62323 -0.2339E+02  0.1131E-12  0.2339E+02
  2 -5  1  1.16869 -2.18474  0.62323  0.2339E+02  0.8660E-14  0.2339E+02
  2  5 -1  1.16869  2.18474 -0.62323  0.2339E+02 -0.2613E-12  0.2339E+02
  2  5  1  1.16869  2.18474  0.62323 -0.2339E+02 -0.2918E-12  0.2339E+02
  0 -4 -3  0.00000 -1.74780 -1.86968  0.1155E-13 -0.2531E-12  0.2534E-12
  0 -4  3  0.00000 -1.74780  1.86968 -0.8882E-14  0.5560E-12  0.5561E-12
  0  4 -3  0.00000  1.74780 -1.86968 -0.8882E-14 -0.5560E-12  0.5561E-12
  0  4  3  0.00000  1.74780  1.86968  0.1155E-13  0.2531E-12  0.2534E-12
 -1  0 -4 -0.58434  0.00000 -2.49291  0.2247E+02  0.1631E-11  0.2247E+02
 -1  0  4 -0.58434  0.00000  2.49291 -0.2247E+02 -0.4404E-12  0.2247E+02
  1  0 -4  0.58434  0.00000 -2.49291 -0.2247E+02  0.4404E-12  0.2247E+02
  1  0  4  0.58434  0.00000  2.49291  0.2247E+02 -0.1631E-11  0.2247E+02
 -3  0 -3 -1.75303  0.00000 -1.86968  0.1780E+02  0.1407E-11  0.1780E+02
 -3  0  3 -1.75303  0.00000  1.86968  0.1780E+02  0.2544E-11  0.1780E+02
  3  0 -3  1.75303  0.00000 -1.86968  0.1780E+02 -0.2544E-11  0.1780E+02
  3  0  3  1.75303  0.00000  1.86968  0.1780E+02 -0.1407E-11  0.1780E+02
 -2 -3 -3 -1.16869 -1.31085 -1.86968  0.1513E+02 -0.2682E-12  0.1513E+02
 -2 -3  3 -1.16869 -1.31085  1.86968 -0.1513E+02 -0.2895E-12  0.1513E+02
 -2  3 -3 -1.16869  1.31085 -1.86968 -0.1513E+02  0.6273E-14  0.1513E+02
 -2  3  3 -1.16869  1.31085  1.86968  0.1513E+02 -0.4530E-13  0.1513E+02
  2 -3 -3  1.16869 -1.31085 -1.86968  0.1513E+02  0.4530E-13  0.1513E+02
  2 -3  3  1.16869 -1.31085  1.86968 -0.1513E+02 -0.6273E-14  0.1513E+02
  2  3 -3  1.16869  1.31085 -1.86968 -0.1513E+02  0.2895E-12  0.1513E+02
  2  3  3  1.16869  1.31085  1.86968  0.1513E+02  0.2682E-12  0.1513E+02
 -4 -2 -1 -2.33738 -0.87390 -0.62323  0.9385E+01 -0.2747E-11  0.9385E+01
 -4 -2  1 -2.33738 -0.87390  0.62323 -0.9385E+01 -0.2098E-11  0.9385E+01
 -4  2 -1 -2.33738  0.87390 -0.62323  0.9385E+01 -0.2488E-11  0.9385E+01
 -4  2  1 -2.33738  0.87390  0.62323 -0.9385E+01 -0.1791E-11  0.9385E+01
  4 -2 -1  2.33738 -0.87390 -0.62323 -0.9385E+01  0.1791E-11  0.9385E+01
  4 -2  1  2.33738 -0.87390  0.62323  0.9385E+01  0.2488E-11  0.9385E+01
  4  2 -1  2.33738  0.87390 -0.62323 -0.9385E+01  0.2098E-11  0.9385E+01
  4  2  1  2.33738  0.87390  0.62323  0.9385E+01  0.2747E-11  0.9385E+01
 -1 -5 -2 -0.58434 -2.18474 -1.24645  0.1736E+02  0.3075E-12  0.1736E+02
 -1 -5  2 -0.58434 -2.18474  1.24645 -0.1736E+02 -0.2506E-12  0.1736E+02
 -1  5 -2 -0.58434  2.18474 -1.24645 -0.1736E+02  0.1883E-12  0.1736E+02
 -1  5  2 -0.58434  2.18474  1.24645  0.1736E+02 -0.4426E-12  0.1736E+02
  1 -5 -2  0.58434 -2.18474 -1.24645  0.1736E+02  0.4426E-12  0.1736E+02
  1 -5  2  0.58434 -2.18474  1.24645 -0.1736E+02 -0.1883E-12  0.1736E+02
  1  5 -2  0.58434  2.18474 -1.24645 -0.1736E+02  0.2506E-12  0.1736E+02
  1  5  2  0.58434  2.18474  1.24645  0.1736E+02 -0.3075E-12  0.1736E+02
 -1 -1 -4 -0.58434 -0.43695 -2.49291 -0.1909E+01 -0.6040E-13  0.1909E+01
 -1 -1  4 -0.58434 -0.43695  2.49291  0.1909E+01 -0.1366E-13  0.1909E+01
 -1  1 -4 -0.58434  0.43695 -2.49291  0.1909E+01  0.7461E-13  0.1909E+01
 -1  1  4 -0.58434  0.43695  2.49291 -0.1909E+01  0.4241E-13  0.1909E+01
  1 -1 -4  0.58434 -0.43695 -2.49291 -0.1909E+01 -0.4241E-13  0.1909E+01
  1 -1  4  0.58434 -0.43695  2.49291  0.1909E+01 -0.7461E-13  0.1909E+01
  1  1 -4  0.58434  0.43695 -2.49291  0.1909E+01  0.1366E-13  0.1909E+01
  1  1  4  0.58434  0.43695  2.49291 -0.1909E+01  0.6040E-13  0.1909E+01
 -3 -1 -3 -1.75303 -0.43695 -1.86968  0.8828E+01 -0.2887E-14  0.8828E+01
 -3 -1  3 -1.75303 -0.43695  1.86968  0.8828E+01 -0.3020E-13  0.8828E+01
 -3  1 -3 -1.75303  0.43695 -1.86968 -0.8828E+01 -0.9381E-14  0.8828E+01
 -3  1  3 -1.75303  0.43695  1.86968 -0.8828E+01 -0.7105E-14  0.8828E+01
  3 -1 -3  1.75303 -0.43695 -1.86968 -0.8828E+01  0.7105E-14  0.8828E+01
  3 -1  3  1.75303 -0.43695  1.86968 -0.8828E+01  0.9381E-14  0.8828E+01
  3  1 -3  1.75303  0.43695 -1.86968  0.8828E+01  0.3020E-13  0.8828E+01
  3  1  3  1.75303  0.43695  1.86968  0.8828E+01  0.2887E-14  0.8828E+01
  0 -6  0  0.00000 -2.62169  0.00000 -0.1927E+02  0.7246E-12  0.1927E+02
  0  6  0  0.00000  2.62169  0.00000 -0.1927E+02 -0.7246E-12  0.1927E+02
 -1 -4 -3 -0.58434 -1.74780 -1.86968 -0.5242E+00  0.5556E-12  0.5242E+00
 -1 -4  3 -0.58434 -1.74780  1.86968 -0.5242E+00  0.1407E-11  0.5242E+00
 -1  4 -3 -0.58434  1.74780 -1.86968 -0.5242E+00 -0.4987E-12  0.5242E+00
 -1  4  3 -0.58434  1.74780  1.86968 -0.5242E+00  0.3151E-12  0.5242E+00
  1 -4 -3  0.58434 -1.74780 -1.86968 -0.5242E+00 -0.3151E-12  0.5242E+00
  1 -4  3  0.58434 -1.74780  1.86968 -0.5242E+00  0.4987E-12  0.5242E+00
  1  4 -3  0.58434  1.74780 -1.86968 -0.5242E+00 -0.1407E-11  0.5242E+00
  1  4  3  0.58434  1.74780  1.86968 -0.5242E+00 -0.5556E-12  0.5242E+00
  0 -2 -4  0.00000 -0.87390 -2.49291  0.2041E+02  0.9698E-12  0.2041E+02
  0 -2  4  0.00000 -0.87390  2.49291  0.2041E+02 -0.1200E-11  0.2041E+02
  0  2 -4  0.00000  0.87390 -2.49291  0.2041E+02  0.1200E-11  0.2041E+02
  0  2  4  0.00000  0.87390  2.49291  0.2041E+02 -0.9698E-12  0.2041E+02
 -4  0 -2 -2.33738  0.00000 -1.24645  0.5860E+01 -0.1664E-11  0.5860E+01
 -4  0  2 -2.33738  0.00000  1.24645  0.5860E+01 -0.2699E-11  0.5860E+01
  4  0 -2  2.33738  0.00000 -1.24645  0.5860E+01  0.2699E-11  0.5860E+01
  4  0  2  2.33738  0.00000  1.24645  0.5860E+01  0.1664E-11  0.5860E+01
 -4 -3  0 -2.33738 -1.31085  0.00000 -0.3170E+02 -0.5640E-13  0.3170E+02
 -4  3  0 -2.33738  1.31085  0.00000  0.3170E+02  0.3790E-12  0.3170E+02
  4 -3  0  2.33738 -1.31085  0.00000  0.3170E+02 -0.3790E-12  0.3170E+02
  4  3  0  2.33738  1.31085  0.00000 -0.3170E+02  0.5640E-13  0.3170E+02
 -4 -1 -2 -2.33738 -0.43695 -1.24645  0.6650E+01  0.3642E-13  0.6650E+01
 -4 -1  2 -2.33738 -0.43695  1.24645  0.6650E+01  0.5085E-13  0.6650E+01
 -4  1 -2 -2.33738  0.43695 -1.24645 -0.6650E+01 -0.6595E-13  0.6650E+01
 -4  1  2 -2.33738  0.43695  1.24645 -0.6650E+01  0.1465E-13  0.6650E+01
  4 -1 -2  2.33738 -0.43695 -1.24645 -0.6650E+01 -0.1465E-13  0.6650E+01
  4 -1  2  2.33738 -0.43695  1.24645 -0.6650E+01  0.6595E-13  0.6650E+01
  4  1 -2  2.33738  0.43695 -1.24645  0.6650E+01 -0.5085E-13  0.6650E+01
  4  1  2  2.33738  0.43695  1.24645  0.6650E+01 -0.3642E-13  0.6650E+01
 -1 -6  0 -0.58434 -2.62169  0.00000 -0.1288E-13  0.4287E-12  0.4289E-12
 -1  6  0 -0.58434  2.62169  0.00000  0.1288E-13  0.3620E-12  0.3623E-12
  1 -6  0  0.58434 -2.62169  0.00000  0.1288E-13 -0.3620E-12  0.3623E-12
  1  6  0  0.58434  2.62169  0.00000 -0.1288E-13 -0.4287E-12  0.4289E-12
  0 -6 -1  0.00000 -2.62169 -0.62323 -0.3664E-13 -0.2309E-12  0.2338E-12
  0 -6  1  0.00000 -2.62169  0.62323 -0.3464E-13  0.2176E-12  0.2203E-12
  0  6 -1  0.00000  2.62169 -0.62323 -0.3464E-13 -0.2176E-12  0.2203E-12
  0  6  1  0.00000  2.62169  0.62323 -0.3664E-13  0.2309E-12  0.2338E-12
 -1 -2 -4 -0.58434 -0.87390 -2.49291  0.1642E+02  0.1858E-11  0.1642E+02
 -1 -2  4 -0.58434 -0.87390  2.49291 -0.1642E+02 -0.3393E-12  0.1642E+02
 -1  2 -4 -0.58434  0.87390 -2.49291  0.1642E+02  0.1618E-11  0.1642E+02
 -1  2  4 -0.58434  0.87390  2.49291 -0.1642E+02 -0.5274E-12  0.1642E+02
  1 -2 -4  0.58434 -0.87390 -2.49291 -0.1642E+02  0.5274E-12  0.1642E+02
  1 -2  4  0.58434 -0.87390  2.49291  0.1642E+02 -0.1618E-11  0.1642E+02
  1  2 -4  0.58434  0.87390 -2.49291 -0.1642E+02  0.3393E-12  0.1642E+02
  1  2  4  0.58434  0.87390  2.49291  0.1642E+02 -0.1858E-11  0.1642E+02
 -3 -2 -3 -1.75303 -0.87390 -1.86968  0.2425E+01  0.1510E-11  0.2425E+01
 -3 -2  3 -1.75303 -0.87390  1.86968  0.2425E+01  0.2924E-11  0.2425E+01
 -3  2 -3 -1.75303  0.87390 -1.86968  0.2425E+01  0.1112E-11  0.2425E+01
 -3  2  3 -1.75303  0.87390  1.86968  0.2425E+01  0.2562E-11  0.2425E+01
  3 -2 -3  1.75303 -0.87390 -1.86968  0.2425E+01 -0.2562E-11  0.2425E+01
  3 -2  3  1.75303 -0.87390  1.86968  0.2425E+01 -0.1112E-11  0.2425E+01
  3  2 -3  1.75303  0.87390 -1.86968  0.2425E+01 -0.2924E-11  0.2425E+01
  3  2  3  1.75303  0.87390  1.86968  0.2425E+01 -0.1510E-11  0.2425E+01
 -4 -3 -1 -2.33738 -1.31085 -0.62323  0.5143E+01  0.4552E-12  0.5143E+01
 -4 -3  1 -2.33738 -1.31085  0.62323 -0.5143E+01  0.3693E-12  0.5143E+01
 -4  3 -1 -2.33738  1.31085 -0.62323 -0.5143E+01 -0.2598E-13  0.5143E+01
 -4  3  1 -2.33738  1.31085  0.62323  0.5143E+01 -0.1512E-12  0.5143E+01
  4 -3 -1  2.33738 -1.31085 -0.62323  0.5143E+01  0.1512E-12  0.5143E+01
  4 -3  1  2.33738 -1.31085  0.62323 -0.5143E+01  0.2598E-13  0.5143E+01
  4  3 -1  2.33738  1.31085 -0.62323 -0.5143E+01 -0.3693E-12  0.5143E+01
  4  3  1  2.33738  1.31085  0.62323  0.5143E+01 -0.4552E-12  0.5143E+01
 -2  0 -4 -1.16869  0.00000 -2.49291 -0.4709E+01 -0.6817E-13  0.4709E+01
 -2  0  4 -1.16869  0.00000  2.49291 -0.4709E+01 -0.2043E-11  0.4709E+01
  2  0 -4  1.16869  0.00000 -2.49291 -0.4709E+01  0.2043E-11  0.4709E+01
  2  0  4  1.16869  0.00000  2.49291 -0.4709E+01  0.6817E-13  0.4709E+01
 -1 -6 -1 -0.58434 -2.62169 -0.62323  0.4279E+00 -0.5298E-12  0.4279E+00
 -1 -6  1 -0.58434 -2.62169  0.62323  0.4279E+00 -0.2354E-12  0.4279E+00
 -1  6 -1 -0.58434  2.62169 -0.62323  0.4279E+00  0.9515E-12  0.4279E+00
 -1  6  1 -0.58434  2.62169  0.62323  0.4279E+00  0.1296E-11  0.4279E+00
  1 -6 -1  0.58434 -2.62169 -0.62323  0.4279E+00 -0.1296E-11  0.4279E+00
  1 -6  1  0.58434 -2.62169  0.62323  0.4279E+00 -0.9515E-12  0.4279E+00
  1  6 -1  0.58434  2.62169 -0.62323  0.4279E+00  0.2354E-12  0.4279E+00
  1  6  1  0.58434  2.62169  0.62323  0.4279E+00  0.5298E-12  0.4279E+00
 -3 -4 -2 -1.75303 -1.74780 -1.24645 -0.7513E+01  0.2729E-11  0.7513E+01
 -3 -4  2 -1.75303 -1.74780  1.24645  0.7513E+01  0.1328E-11  0.7513E+01
 -3  4 -2 -1.75303  1.74780 -1.24645 -0.7513E+01  0.2409E-11  0.7513E+01
 -3  4  2 -1.75303  1.74780  1.24645  0.7513E+01  0.1010E-11  0.7513E+01
  3 -4 -2  1.75303 -1.74780 -1.24645  0.7513E+01 -0.1010E-11  0.7513E+01
  3 -4  2  1.75303 -1.74780  1.24645 -0.7513E+01 -0.2409E-11  0.7513E+01
  3  4 -2  1.75303  1.74780 -1.24645  0.7513E+01 -0.1328E-11  0.7513E+01
  3  4  2  1.75303  1.74780  1.24645 -0.7513E+01 -0.2729E-11  0.7513E+01
 -2 -5 -2 -1.16869 -2.18474 -1.24645 -0.9870E+01  0.5396E-12  0.9870E+01
 -2 -5  2 -1.16869 -2.18474  1.24645 -0.9870E+01  0.6350E-13  0.9870E+01
 -2  5 -2 -1.16869  2.18474 -1.24645  0.9870E+01  0.8393E-13  0.9870E+01
 -2  5  2 -1.16869  2.18474  1.24645  0.9870E+01 -0.4106E-12  0.9870E+01
  2 -5 -2  1.16869 -2.18474 -1.24645  0.9870E+01  0.4106E-12  0.9870E+01
  2 -5  2  1.16869 -2.18474  1.24645  0.9870E+01 -0.8393E-13  0.9870E+01
  2  5 -2  1.16869  2.18474 -1.24645 -0.9870E+01 -0.6350E-13  0.9870E+01
  2  5  2  1.16869  2.18474  1.24645 -0.9870E+01 -0.5396E-12  0.9870E+01
 -2 -1 -4 -1.16869 -0.43695 -2.49291 -0.5166E+01  0.1132E-12  0.5166E+01
 -2 -1  4 -1.16869 -0.43695  2.49291 -0.5166E+01  0.7949E-13  0.5166E+01
 -2  1 -4 -1.16869  0.43695 -2.49291  0.5166E+01 -0.5196E-13  0.5166E+01
 -2  1  4 -1.16869  0.43695  2.49291  0.5166E+01 -0.5596E-13  0.5166E+01
  2 -1 -4  1.16869 -0.43695 -2.49291  0.5166E+01  0.5596E-13  0.5166E+01
  2 -1  4  1.16869 -0.43695  2.49291  0.5166E+01  0.5196E-13  0.5166E+01
  2  1 -4  1.16869  0.43695 -2.49291 -0.5166E+01 -0.7949E-13  0.5166E+01
  2  1  4  1.16869  0.43695  2.49291 -0.5166E+01 -0.1132E-12  0.5166E+01
 -4 -2 -2 -2.33738 -0.87390 -1.24645  0.4369E+01 -0.1603E-11  0.4369E+01
 -4 -2  2 -2.33738 -0.87390  1.24645  0.4369E+01 -0.2896E-11  0.4369E+01
 -4  2 -2 -2.33738  0.87390 -1.24645  0.4369E+01 -0.1406E-11  0.4369E+01
 -4  2  2 -2.33738  0.87390  1.24645  0.4369E+01 -0.2714E-11  0.4369E+01
  4 -2 -2  2.33738 -0.87390 -1.24645  0.4369E+01  0.2714E-11  0.4369E+01
  4 -2  2  2.33738 -0.87390  1.24645  0.4369E+01  0.1406E-11  0.4369E+01
  4  2 -2  2.33738  0.87390 -1.24645  0.4369E+01  0.2896E-11  0.4369E+01
  4  2  2  2.33738  0.87390  1.24645  0.4369E+01  0.1603E-11  0.4369E+01
 -3 -5  0 -1.75303 -2.18474  0.00000  0.5462E-13  0.1721E-12  0.1805E-12
 -3  5  0 -1.75303  2.18474  0.00000  0.5007E-13  0.1554E-14  0.5010E-13
  3 -5  0  1.75303 -2.18474  0.00000  0.5007E-13 -0.1554E-14  0.5010E-13
  3  5  0  1.75303  2.18474  0.00000  0.5462E-13 -0.1721E-12  0.1805E-12
 -2 -4 -3 -1.16869 -1.74780 -1.86968  0.5069E+01 -0.1560E-11  0.5069E+01
 -2 -4  3 -1.16869 -1.74780  1.86968 -0.5069E+01 -0.7527E-12  0.5069E+01
 -2  4 -3 -1.16869  1.74780 -1.86968  0.5069E+01 -0.1623E-11  0.5069E+01
 -2  4  3 -1.16869  1.74780  1.86968 -0.5069E+01 -0.7797E-12  0.5069E+01
  2 -4 -3  1.16869 -1.74780 -1.86968 -0.5069E+01  0.7797E-12  0.5069E+01
  2 -4  3  1.16869 -1.74780  1.86968  0.5069E+01  0.1623E-11  0.5069E+01
  2  4 -3  1.16869  1.74780 -1.86968 -0.5069E+01  0.7527E-12  0.5069E+01
  2  4  3  1.16869  1.74780  1.86968  0.5069E+01  0.1560E-11  0.5069E+01
  0 -3 -4  0.00000 -1.31085 -2.49291 -0.1066E-13 -0.2083E-12  0.2086E-12
  0 -3  4  0.00000 -1.31085  2.49291  0.2398E-13 -0.3837E-12  0.3844E-12
  0  3 -4  0.00000  1.31085 -2.49291  0.2398E-13  0.3837E-12  0.3844E-12
  0  3  4  0.00000  1.31085  2.49291 -0.1066E-13  0.2083E-12  0.2086E-12
 -3 -5 -1 -1.75303 -2.18474 -0.62323 -0.8600E+01  0.3872E-12  0.8600E+01
 -3 -5  1 -1.75303 -2.18474  0.62323 -0.8600E+01  0.2911E-12  0.8600E+01
 -3  5 -1 -1.75303  2.18474 -0.62323  0.8600E+01 -0.1086E-12  0.8600E+01
 -3  5  1 -1.75303  2.18474  0.62323  0.8600E+01 -0.3158E-12  0.8600E+01
  3 -5 -1  1.75303 -2.18474 -0.62323  0.8600E+01  0.3158E-12  0.8600E+01
  3 -5  1  1.75303 -2.18474  0.62323  0.8600E+01  0.1086E-12  0.8600E+01
  3  5 -1  1.75303  2.18474 -0.62323 -0.8600E+01 -0.2911E-12  0.8600E+01
  3  5  1  1.75303  2.18474  0.62323 -0.8600E+01 -0.3872E-12  0.8600E+01
 -2 -6  0 -1.16869 -2.62169  0.00000  0.5518E+01 -0.6661E-13  0.5518E+01
 -2  6  0 -1.16869  2.62169  0.00000  0.5518E+01 -0.1541E-11  0.5518E+01
  2 -6  0  1.16869 -2.62169  0.00000  0.5518E+01  0.1541E-11  0.5518E+01
  2  6  0  1.16869  2.62169  0.00000  0.5518E+01  0.6661E-13  0.5518E+01
  0 -5 -3  0.00000 -2.18474 -1.86968 -0.1710E+02  0.4603E-12  0.1710E+02
  0 -5  3  0.00000 -2.18474  1.86968  0.1710E+02  0.4441E-14  0.1710E+02
  0  5 -3  0.00000  2.18474 -1.86968  0.1710E+02 -0.4441E-14  0.1710E+02
  0  5  3  0.00000  2.18474  1.86968 -0.1710E+02 -0.4603E-12  0.1710E+02
 -1 -3 -4 -0.58434 -1.31085 -2.49291 -0.7963E+01  0.2731E-12  0.7963E+01
 -1 -3  4 -0.58434 -1.31085  2.49291  0.7963E+01  0.1343E-12  0.7963E+01
 -1  3 -4 -0.58434  1.31085 -2.49291  0.7963E+01  0.1381E-12  0.7963E+01
 -1  3  4 -0.58434  1.31085  2.49291 -0.7963E+01 -0.2842E-13  0.7963E+01
  1 -3 -4  0.58434 -1.31085 -2.49291 -0.7963E+01  0.2842E-13  0.7963E+01
  1 -3  4  0.58434 -1.31085  2.49291  0.7963E+01 -0.1381E-12  0.7963E+01
  1  3 -4  0.58434  1.31085 -2.49291  0.7963E+01 -0.1343E-12  0.7963E+01
  1  3  4  0.58434  1.31085  2.49291 -0.7963E+01 -0.2731E-12  0.7963E+01
 -3 -3 -3 -1.75303 -1.31085 -1.86968  0.1348E+01  0.7417E-12  0.1348E+01
 -3 -3  3 -1.75303 -1.31085  1.86968  0.1348E+01  0.6944E-12  0.1348E+01
 -3  3 -3 -1.75303  1.31085 -1.86968 -0.1348E+01 -0.3821E-12  0.1348E+01
 -3  3  3 -1.75303  1.31085  1.86968 -0.1348E+01 -0.3433E-12  0.1348E+01
  3 -3 -3  1.75303 -1.31085 -1.86968 -0.1348E+01  0.3433E-12  0.1348E+01
  3 -3  3  1.75303 -1.31085  1.86968 -0.1348E+01  0.3821E-12  0.1348E+01
  3  3 -3  1.75303  1.31085 -1.86968  0.1348E+01 -0.6944E-12  0.1348E+01
  3  3  3  1.75303  1.31085  1.86968  0.1348E+01 -0.7417E-12  0.1348E+01
 -2 -2 -4 -1.16869 -0.87390 -2.49291  0.1390E+02 -0.1241E-12  0.1390E+02
 -2 -2  4 -1.16869 -0.87390  2.49291  0.1390E+02 -0.2167E-11  0.1390E+02
 -2  2 -4 -1.16869  0.87390 -2.49291  0.1390E+02  0.1160E-12  0.1390E+02
 -2  2  4 -1.16869  0.87390  2.49291  0.1390E+02 -0.1901E-11  0.1390E+02
  2 -2 -4  1.16869 -0.87390 -2.49291  0.1390E+02  0.1901E-11  0.1390E+02
  2 -2  4  1.16869 -0.87390  2.49291  0.1390E+02 -0.1160E-12  0.1390E+02
  2  2 -4  1.16869  0.87390 -2.49291  0.1390E+02  0.2167E-11  0.1390E+02
  2  2  4  1.16869  0.87390  2.49291  0.1390E+02  0.1241E-12  0.1390E+02
  0 -6 -2  0.00000 -2.62169 -1.24645  0.1460E+02  0.1414E-11  0.1460E+02
  0 -6  2  0.00000 -2.62169  1.24645  0.1460E+02  0.2447E-12  0.1460E+02
  0  6 -2  0.00000  2.62169 -1.24645  0.1460E+02 -0.2447E-12  0.1460E+02
  0  6  2  0.00000  2.62169  1.24645  0.1460E+02 -0.1414E-11  0.1460E+02
 -4 -4  0 -2.33738 -1.74780  0.00000  0.9714E+01 -0.2317E-11  0.9714E+01
 -4  4  0 -2.33738  1.74780  0.00000  0.9714E+01 -0.1689E-11  0.9714E+01
  4 -4  0  2.33738 -1.74780  0.00000  0.9714E+01  0.1689E-11  0.9714E+01
  4  4  0  2.33738  1.74780  0.00000  0.9714E+01  0.2317E-11  0.9714E+01
 -5  0  0 -2.92172  0.00000  0.00000  0.6145E-13  0.2343E-11  0.2344E-11
  5  0  0  2.92172  0.00000  0.00000  0.6145E-13 -0.2343E-11  0.2344E-11
 -1 -5 -3 -0.58434 -2.18474 -1.86968 -0.1511E+02  0.2320E-12  0.1511E+02
 -1 -5  3 -0.58434 -2.18474  1.86968 -0.1511E+02 -0.2305E-12  0.1511E+02
 -1  5 -3 -0.58434  2.18474 -1.86968  0.1511E+02  0.1279E-12  0.1511E+02
 -1  5  3 -0.58434  2.18474  1.86968  0.1511E+02 -0.4485E-12  0.1511E+02
  1 -5 -3  0.58434 -2.18474 -1.86968  0.1511E+02  0.4485E-12  0.1511E+02
  1 -5  3  0.58434 -2.18474  1.86968  0.1511E+02 -0.1279E-12  0.1511E+02
  1  5 -3  0.58434  2.18474 -1.86968 -0.1511E+02  0.2305E-12  0.1511E+02
  1  5  3  0.58434  2.18474  1.86968 -0.1511E+02 -0.2320E-12  0.1511E+02
 -2 -6 -1 -1.16869 -2.62169 -0.62323  0.3919E+01 -0.8471E-12  0.3919E+01
 -2 -6  1 -1.16869 -2.62169  0.62323 -0.3919E+01 -0.6632E-12  0.3919E+01
 -2  6 -1 -1.16869  2.62169 -0.62323  0.3919E+01 -0.8763E-12  0.3919E+01
 -2  6  1 -1.16869  2.62169  0.62323 -0.3919E+01 -0.6051E-12  0.3919E+01
  2 -6 -1  1.16869 -2.62169 -0.62323 -0.3919E+01  0.6051E-12  0.3919E+01
  2 -6  1  1.16869 -2.62169  0.62323  0.3919E+01  0.8763E-12  0.3919E+01
  2  6 -1  1.16869  2.62169 -0.62323 -0.3919E+01  0.6632E-12  0.3919E+01
  2  6  1  1.16869  2.62169  0.62323  0.3919E+01  0.8471E-12  0.3919E+01
 -5 -1  0 -2.92172 -0.43695  0.00000  0.1377E-13 -0.1034E-12  0.1043E-12
 -5  1  0 -2.92172  0.43695  0.00000  0.2354E-13 -0.5079E-13  0.5598E-13
  5 -1  0  2.92172 -0.43695  0.00000  0.2354E-13  0.5079E-13  0.5598E-13
  5  1  0  2.92172  0.43695  0.00000  0.1377E-13  0.1034E-12  0.1043E-12
 -4 -3 -2 -2.33738 -1.31085 -1.24645  0.1203E+02  0.2665E-13  0.1203E+02
 -4 -3  2 -2.33738 -1.31085  1.24645  0.1203E+02  0.1510E-13  0.1203E+02
 -4  3 -2 -2.33738  1.31085 -1.24645 -0.1203E+02  0.3841E-12  0.1203E+02
 -4  3  2 -2.33738  1.31085  1.24645 -0.1203E+02  0.3664E-12  0.1203E+02
  4 -3 -2  2.33738 -1.31085 -1.24645 -0.1203E+02 -0.3664E-12  0.1203E+02
  4 -3  2  2.33738 -1.31085  1.24645 -0.1203E+02 -0.3841E-12  0.1203E+02
  4  3 -2  2.33738  1.31085 -1.24645  0.1203E+02 -0.1510E-13  0.1203E+02
  4  3  2  2.33738  1.31085  1.24645  0.1203E+02 -0.2665E-13  0.1203E+02
 -1 -6 -2 -0.58434 -2.62169 -1.24645  0.1098E+02  0.1072E-11  0.1098E+02
 -1 -6  2 -0.58434 -2.62169  1.24645 -0.1098E+02 -0.1072E-12  0.1098E+02
 -1  6 -2 -0.58434  2.62169 -1.24645  0.1098E+02  0.8153E-12  0.1098E+02
 -1  6  2 -0.58434  2.62169  1.24645 -0.1098E+02 -0.2442E-12  0.1098E+02
  1 -6 -2  0.58434 -2.62169 -1.24645 -0.1098E+02  0.2442E-12  0.1098E+02
  1 -6  2  0.58434 -2.62169  1.24645  0.1098E+02 -0.8153E-12  0.1098E+02
  1  6 -2  0.58434  2.62169 -1.24645 -0.1098E+02  0.1072E-12  0.1098E+02
  1  6  2  0.58434  2.62169  1.24645  0.1098E+02 -0.1072E-11  0.1098E+02
 -4 -4 -1 -2.33738 -1.74780 -0.62323  0.8375E+01 -0.2333E-11  0.8375E+01
 -4 -4  1 -2.33738 -1.74780  0.62323 -0.8375E+01 -0.1724E-11  0.8375E+01
 -4  4 -1 -2.33738  1.74780 -0.62323  0.8375E+01 -0.2339E-11  0.8375E+01
 -4  4  1 -2.33738  1.74780  0.62323 -0.8375E+01 -0.1691E-11  0.8375E+01
  4 -4 -1  2.33738 -1.74780 -0.62323 -0.8375E+01  0.1691E-11  0.8375E+01
  4 -4  1  2.33738 -1.74780  0.62323  0.8375E+01  0.2339E-11  0.8375E+01
  4  4 -1  2.33738  1.74780 -0.62323 -0.8375E+01  0.1724E-11  0.8375E+01
  4  4  1  2.33738  1.74780  0.62323  0.8375E+01  0.2333E-11  0.8375E+01
 -5  0 -1 -2.92172  0.00000 -0.62323  0.2558E+01  0.2060E-11  0.2558E+01
 -5  0  1 -2.92172  0.00000  0.62323  0.2558E+01  0.2459E-11  0.2558E+01
  5  0 -1  2.92172  0.00000 -0.62323  0.2558E+01 -0.2459E-11  0.2558E+01
  5  0  1  2.92172  0.00000  0.62323  0.2558E+01 -0.2060E-11  0.2558E+01
 -4  0 -3 -2.33738  0.00000 -1.86968 -0.1865E+01 -0.2559E-11  0.1865E+01
 -4  0  3 -2.33738  0.00000  1.86968  0.1865E+01 -0.1453E-11  0.1865E+01
  4  0 -3  2.33738  0.00000 -1.86968  0.1865E+01  0.1453E-11  0.1865E+01
  4  0  3  2.33738  0.00000  1.86968 -0.1865E+01  0.2559E-11  0.1865E+01
 -5 -1 -1 -2.92172 -0.43695 -0.62323 -0.6916E+01 -0.9281E-13  0.6916E+01
 -5 -1  1 -2.92172 -0.43695  0.62323 -0.6916E+01 -0.2294E-12  0.6916E+01
 -5  1 -1 -2.92172  0.43695 -0.62323  0.6916E+01  0.1465E-13  0.6916E+01
 -5  1  1 -2.92172  0.43695  0.62323  0.6916E+01 -0.8660E-13  0.6916E+01
  5 -1 -1  2.92172 -0.43695 -0.62323  0.6916E+01  0.8660E-13  0.6916E+01
  5 -1  1  2.92172 -0.43695  0.62323  0.6916E+01 -0.1465E-13  0.6916E+01
  5  1 -1  2.92172  0.43695 -0.62323 -0.6916E+01  0.2294E-12  0.6916E+01
  5  1  1  2.92172  0.43695  0.62323 -0.6916E+01  0.9281E-13  0.6916E+01
 -4 -1 -3 -2.33738 -0.43695 -1.86968 -0.3458E+01  0.1399E-13  0.3458E+01
 -4 -1  3 -2.33738 -0.43695  1.86968  0.3458E+01 -0.1776E-13  0.3458E+01
 -4  1 -3 -2.33738  0.43695 -1.86968  0.3458E+01 -0.4419E-13  0.3458E+01
 -4  1  3 -2.33738  0.43695  1.86968 -0.3458E+01 -0.1910E-13  0.3458E+01
  4 -1 -3  2.33738 -0.43695 -1.86968 -0.3458E+01  0.1910E-13  0.3458E+01
  4 -1  3  2.33738 -0.43695  1.86968  0.3458E+01  0.4419E-13  0.3458E+01
  4  1 -3  2.33738  0.43695 -1.86968  0.3458E+01  0.1776E-13  0.3458E+01
  4  1  3  2.33738  0.43695  1.86968 -0.3458E+01 -0.1399E-13  0.3458E+01
  0 -4 -4  0.00000 -1.74780 -2.49291 -0.7074E+01  0.1058E-11  0.7074E+01
  0 -4  4  0.00000 -1.74780  2.49291 -0.7074E+01 -0.1205E-11  0.7074E+01
  0  4 -4  0.00000  1.74780 -2.49291 -0.7074E+01  0.1205E-11  0.7074E+01
  0  4  4  0.00000  1.74780  2.49291 -0.7074E+01 -0.1058E-11  0.7074E+01
 -3  0 -4 -1.75303  0.00000 -2.49291 -0.1087E+02  0.2609E-11  0.1087E+02
 -3  0  4 -1.75303  0.00000  2.49291  0.1087E+02  0.7969E-12  0.1087E+02
  3  0 -4  1.75303  0.00000 -2.49291  0.1087E+02 -0.7969E-12  0.1087E+02
  3  0  4  1.75303  0.00000  2.49291 -0.1087E+02 -0.2609E-11  0.1087E+02
 -2 -3 -4 -1.16869 -1.31085 -2.49291  0.5408E+01 -0.3948E-12  0.5408E+01
 -2 -3  4 -1.16869 -1.31085  2.49291  0.5408E+01 -0.5951E-12  0.5408E+01
 -2  3 -4 -1.16869  1.31085 -2.49291 -0.5408E+01  0.3286E-12  0.5408E+01
 -2  3  4 -1.16869  1.31085  2.49291 -0.5408E+01  0.1816E-12  0.5408E+01
  2 -3 -4  1.16869 -1.31085 -2.49291 -0.5408E+01 -0.1816E-12  0.5408E+01
  2 -3  4  1.16869 -1.31085  2.49291 -0.5408E+01 -0.3286E-12  0.5408E+01
  2  3 -4  1.16869  1.31085 -2.49291  0.5408E+01  0.5951E-12  0.5408E+01
  2  3  4  1.16869  1.31085  2.49291  0.5408E+01  0.3948E-12  0.5408E+01
 -5 -2  0 -2.92172 -0.87390  0.00000 -0.4574E-13  0.2663E-11  0.2663E-11
 -5  2  0 -2.92172  0.87390  0.00000  0.1366E-13  0.1990E-11  0.1990E-11
  5 -2  0  2.92172 -0.87390  0.00000  0.1366E-13 -0.1990E-11  0.1990E-11
  5  2  0  2.92172  0.87390  0.00000 -0.4574E-13 -0.2663E-11  0.2663E-11
  0 -7  0  0.00000 -3.05864  0.00000 -0.2642E-13  0.7105E-14  0.2736E-13
  0  7  0  0.00000  3.05864  0.00000 -0.2642E-13 -0.7105E-14  0.2736E-13
 -3 -5 -2 -1.75303 -2.18474 -1.24645 -0.5621E+01  0.6033E-12  0.5621E+01
 -3 -5  2 -1.75303 -2.18474  1.24645  0.5621E+01  0.1805E-12  0.5621E+01
 -3  5 -2 -1.75303  2.18474 -1.24645  0.5621E+01 -0.3775E-14  0.5621E+01
 -3  5  2 -1.75303  2.18474  1.24645 -0.5621E+01 -0.4463E-12  0.5621E+01
  3 -5 -2  1.75303 -2.18474 -1.24645 -0.5621E+01  0.4463E-12  0.5621E+01
  3 -5  2  1.75303 -2.18474  1.24645  0.5621E+01  0.3775E-14  0.5621E+01
  3  5 -2  1.75303  2.18474 -1.24645  0.5621E+01 -0.1805E-12  0.5621E+01
  3  5  2  1.75303  2.18474  1.24645 -0.5621E+01 -0.6033E-12  0.5621E+01
 -3 -1 -4 -1.75303 -0.43695 -2.49291  0.6954E+01 -0.2087E-13  0.6954E+01
 -3 -1  4 -1.75303 -0.43695  2.49291 -0.6954E+01 -0.9992E-14  0.6954E+01
 -3  1 -4 -1.75303  0.43695 -2.49291 -0.6954E+01  0.1465E-13  0.6954E+01
 -3  1  4 -1.75303  0.43695  2.49291  0.6954E+01 -0.1199E-13  0.6954E+01
  3 -1 -4  1.75303 -0.43695 -2.49291  0.6954E+01  0.1199E-13  0.6954E+01
  3 -1  4  1.75303 -0.43695  2.49291 -0.6954E+01 -0.1465E-13  0.6954E+01
  3  1 -4  1.75303  0.43695 -2.49291 -0.6954E+01  0.9992E-14  0.6954E+01
  3  1  4  1.75303  0.43695  2.49291  0.6954E+01  0.2087E-13  0.6954E+01
 -1 -4 -4 -0.58434 -1.74780 -2.49291  0.1375E+01  0.1737E-11  0.1375E+01
 -1 -4  4 -0.58434 -1.74780  2.49291 -0.1375E+01 -0.5474E-12  0.1375E+01
 -1  4 -4 -0.58434  1.74780 -2.49291  0.1375E+01  0.1262E-11  0.1375E+01
 -1  4  4 -0.58434  1.74780  2.49291 -0.1375E+01 -0.1002E-11  0.1375E+01
  1 -4 -4  0.58434 -1.74780 -2.49291 -0.1375E+01  0.1002E-11  0.1375E+01
  1 -4  4  0.58434 -1.74780  2.49291  0.1375E+01 -0.1262E-11  0.1375E+01
  1  4 -4  0.58434  1.74780 -2.49291 -0.1375E+01  0.5474E-12  0.1375E+01
  1  4  4  0.58434  1.74780  2.49291  0.1375E+01 -0.1737E-11  0.1375E+01
 -3 -4 -3 -1.75303 -1.74780 -1.86968  0.2520E+01  0.1769E-11  0.2520E+01
 -3 -4  3 -1.75303 -1.74780  1.86968  0.2520E+01  0.2497E-11  0.2520E+01
 -3  4 -3 -1.75303  1.74780 -1.86968  0.2520E+01  0.8780E-12  0.2520E+01
 -3  4  3 -1.75303  1.74780  1.86968  0.2520E+01  0.1595E-11  0.2520E+01
  3 -4 -3  1.75303 -1.74780 -1.86968  0.2520E+01 -0.1595E-11  0.2520E+01
  3 -4  3  1.75303 -1.74780  1.86968  0.2520E+01 -0.8780E-12  0.2520E+01
  3  4 -3  1.75303  1.74780 -1.86968  0.2520E+01 -0.2497E-11  0.2520E+01
  3  4  3  1.75303  1.74780  1.86968  0.2520E+01 -0.1769E-11  0.2520E+01
 -2 -5 -3 -1.16869 -2.18474 -1.86968 -0.1908E+00  0.5437E-12  0.1908E+00
 -2 -5  3 -1.16869 -2.18474  1.86968  0.1908E+00  0.5640E-13  0.1908E+00
 -2  5 -3 -1.16869  2.18474 -1.86968  0.1908E+00  0.8987E-13  0.1908E+00
 -2  5  3 -1.16869  2.18474  1.86968 -0.1908E+00 -0.3921E-12  0.1908E+00
  2 -5 -3  1.16869 -2.18474 -1.86968 -0.1908E+00  0.3921E-12  0.1908E+00
  2 -5  3  1.16869 -2.18474  1.86968  0.1908E+00 -0.8987E-13  0.1908E+00
  2  5 -3  1.16869  2.18474 -1.86968  0.1908E+00 -0.5640E-13  0.1908E+00
  2  5  3  1.16869  2.18474  1.86968 -0.1908E+00 -0.5437E-12  0.1908E+00
 -5 -2 -1 -2.92172 -0.87390 -0.62323  0.2341E+01  0.2356E-11  0.2341E+01
 -5 -2  1 -2.92172 -0.87390  0.62323  0.2341E+01  0.2949E-11  0.2341E+01
 -5  2 -1 -2.92172  0.87390 -0.62323  0.2341E+01  0.1533E-11  0.2341E+01
 -5  2  1 -2.92172  0.87390  0.62323  0.2341E+01  0.2163E-11  0.2341E+01
  5 -2 -1  2.92172 -0.87390 -0.62323  0.2341E+01 -0.2163E-11  0.2341E+01
  5 -2  1  2.92172 -0.87390  0.62323  0.2341E+01 -0.1533E-11  0.2341E+01
  5  2 -1  2.92172  0.87390 -0.62323  0.2341E+01 -0.2949E-11  0.2341E+01
  5  2  1  2.92172  0.87390  0.62323  0.2341E+01 -0.2356E-11  0.2341E+01
 -1 -7  0 -0.58434 -3.05864  0.00000  0.9936E-13  0.1332E-12  0.1662E-12
 -1  7  0 -0.58434  3.05864  0.00000  0.5951E-13  0.1297E-12  0.1427E-12
  1 -7  0  0.58434 -3.05864  0.00000  0.5951E-13 -0.1297E-12  0.1427E-12
  1  7  0  0.58434  3.05864  0.00000  0.9936E-13 -0.1332E-12  0.1662E-12
  0  0 -5  0.00000  0.00000 -3.11614 -0.7105E-14 -0.6561E-12  0.6562E-12
  0  0  5  0.00000  0.00000  3.11614 -0.7105E-14  0.6561E-12  0.6562E-12
 -4 -2 -3 -2.33738 -0.87390 -1.86968 -0.1227E+02 -0.2805E-11  0.1227E+02
 -4 -2  3 -2.33738 -0.87390  1.86968  0.1227E+02 -0.1488E-11  0.1227E+02
 -4  2 -3 -2.33738  0.87390 -1.86968 -0.1227E+02 -0.2488E-11  0.1227E+02
 -4  2  3 -2.33738  0.87390  1.86968  0.1227E+02 -0.1208E-11  0.1227E+02
  4 -2 -3  2.33738 -0.87390 -1.86968  0.1227E+02  0.1208E-11  0.1227E+02
  4 -2  3  2.33738 -0.87390  1.86968 -0.1227E+02  0.2488E-11  0.1227E+02
  4  2 -3  2.33738  0.87390 -1.86968  0.1227E+02  0.1488E-11  0.1227E+02
  4  2  3  2.33738  0.87390  1.86968 -0.1227E+02  0.2805E-11  0.1227E+02
  0 -7 -1  0.00000 -3.05864 -0.62323  0.1734E+02 -0.3442E-13  0.1734E+02
  0 -7  1  0.00000 -3.05864  0.62323 -0.1734E+02  0.4041E-13  0.1734E+02
  0  7 -1  0.00000  3.05864 -0.62323 -0.1734E+02 -0.4041E-13  0.1734E+02
  0  7  1  0.00000  3.05864  0.62323  0.1734E+02  0.3442E-13  0.1734E+02
 -2 -6 -2 -1.16869 -2.62169 -1.24645 -0.2561E+01  0.5655E-12  0.2561E+01
 -2 -6  2 -1.16869 -2.62169  1.24645 -0.2561E+01 -0.4727E-12  0.2561E+01
 -2  6 -2 -1.16869  2.62169 -1.24645 -0.2561E+01 -0.8691E-12  0.2561E+01
 -2  6  2 -1.16869  2.62169  1.24645 -0.2561E+01 -0.1969E-11  0.2561E+01
  2 -6 -2  1.16869 -2.62169 -1.24645 -0.2561E+01  0.1969E-11  0.2561E+01
  2 -6  2  1.16869 -2.62169  1.24645 -0.2561E+01  0.8691E-12  0.2561E+01
  2  6 -2  1.16869  2.62169 -1.24645 -0.2561E+01  0.4727E-12  0.2561E+01
  2  6  2  1.16869  2.62169  1.24645 -0.2561E+01 -0.5655E-12  0.2561E+01
  0 -1 -5  0.00000 -0.43695 -3.11614  0.2733E+01 -0.4223E-12  0.2733E+01
  0 -1  5  0.00000 -0.43695  3.11614 -0.2733E+01  0.4952E-13  0.2733E+01
  0  1 -5  0.00000  0.43695 -3.11614 -0.2733E+01 -0.4952E-13  0.2733E+01
  0  1  5  0.00000  0.43695  3.11614  0.2733E+01  0.4223E-12  0.2733E+01
 -3 -6  0 -1.75303 -2.62169  0.00000  0.4929E-13  0.2154E-11  0.2155E-11
 -3  6  0 -1.75303  2.62169  0.00000  0.5529E-13  0.1676E-11  0.1676E-11
  3 -6  0  1.75303 -2.62169  0.00000  0.5529E-13 -0.1676E-11  0.1676E-11
  3  6  0  1.75303  2.62169  0.00000  0.4929E-13 -0.2154E-11  0.2155E-11
 -3 -2 -4 -1.75303 -0.87390 -2.49291 -0.5009E+01  0.2856E-11  0.5009E+01
 -3 -2  4 -1.75303 -0.87390  2.49291  0.5009E+01  0.1021E-11  0.5009E+01
 -3  2 -4 -1.75303  0.87390 -2.49291 -0.5009E+01  0.2568E-11  0.5009E+01
 -3  2  4 -1.75303  0.87390  2.49291  0.5009E+01  0.6968E-12  0.5009E+01
  3 -2 -4  1.75303 -0.87390 -2.49291  0.5009E+01 -0.6968E-12  0.5009E+01
  3 -2  4  1.75303 -0.87390  2.49291 -0.5009E+01 -0.2568E-11  0.5009E+01
  3  2 -4  1.75303  0.87390 -2.49291  0.5009E+01 -0.1021E-11  0.5009E+01
  3  2  4  1.75303  0.87390  2.49291 -0.5009E+01 -0.2856E-11  0.5009E+01
 -1  0 -5 -0.58434  0.00000 -3.11614  0.1006E+02 -0.1673E-12  0.1006E+02
 -1  0  5 -0.58434  0.00000  3.11614  0.1006E+02  0.1132E-11  0.1006E+02
  1  0 -5  0.58434  0.00000 -3.11614  0.1006E+02 -0.1132E-11  0.1006E+02
  1  0  5  0.58434  0.00000  3.11614  0.1006E+02  0.1673E-12  0.1006E+02
 -4 -4 -2 -2.33738 -1.74780 -1.24645  0.3260E+01 -0.1498E-11  0.3260E+01
 -4 -4  2 -2.33738 -1.74780  1.24645  0.3260E+01 -0.2680E-11  0.3260E+01
 -4  4 -2 -2.33738  1.74780 -1.24645  0.3260E+01 -0.1216E-11  0.3260E+01
 -4  4  2 -2.33738  1.74780  1.24645  0.3260E+01 -0.2335E-11  0.3260E+01
  4 -4 -2  2.33738 -1.74780 -1.24645  0.3260E+01  0.2335E-11  0.3260E+01
  4 -4  2  2.33738 -1.74780  1.24645  0.3260E+01  0.1216E-11  0.3260E+01
  4  4 -2  2.33738  1.74780 -1.24645  0.3260E+01  0.2680E-11  0.3260E+01
  4  4  2  2.33738  1.74780  1.24645  0.3260E+01  0.1498E-11  0.3260E+01
 -1 -7 -1 -0.58434 -3.05864 -0.62323  0.4533E+01  0.1044E-12  0.4533E+01
 -1 -7  1 -0.58434 -3.05864  0.62323  0.4533E+01  0.2600E-12  0.4533E+01
 -1  7 -1 -0.58434  3.05864 -0.62323 -0.4533E+01 -0.1976E-13  0.4533E+01
 -1  7  1 -0.58434  3.05864  0.62323 -0.4533E+01  0.1594E-12  0.4533E+01
  1 -7 -1  0.58434 -3.05864 -0.62323 -0.4533E+01 -0.1594E-12  0.4533E+01
  1 -7  1  0.58434 -3.05864  0.62323 -0.4533E+01  0.1976E-13  0.4533E+01
  1  7 -1  0.58434  3.05864 -0.62323  0.4533E+01 -0.2600E-12  0.4533E+01
  1  7  1  0.58434  3.05864  0.62323  0.4533E+01 -0.1044E-12  0.4533E+01
 -5  0 -2 -2.92172  0.00000 -1.24645 -0.6392E+01  0.2544E-11  0.6392E+01
 -5  0  2 -2.92172  0.00000  1.24645  0.6392E+01  0.1672E-11  0.6392E+01
  5  0 -2  2.92172  0.00000 -1.24645  0.6392E+01 -0.1672E-11  0.6392E+01
  5  0  2  2.92172  0.00000  1.24645 -0.6392E+01 -0.2544E-11  0.6392E+01
 -4 -5  0 -2.33738 -2.18474  0.00000 -0.8349E+01  0.9448E-13  0.8349E+01
 -4  5  0 -2.33738  2.18474  0.00000  0.8349E+01  0.5052E-14  0.8349E+01
  4 -5  0  2.33738 -2.18474  0.00000  0.8349E+01 -0.5052E-14  0.8349E+01
  4  5  0  2.33738  2.18474  0.00000 -0.8349E+01 -0.9448E-13  0.8349E+01
 -1 -1 -5 -0.58434 -0.43695 -3.11614  0.8749E+01 -0.4501E-12  0.8749E+01
 -1 -1  5 -0.58434 -0.43695  3.11614  0.8749E+01 -0.5262E-13  0.8749E+01
 -1  1 -5 -0.58434  0.43695 -3.11614 -0.8749E+01  0.5551E-14  0.8749E+01
 -1  1  5 -0.58434  0.43695  3.11614 -0.8749E+01  0.4887E-12  0.8749E+01
  1 -1 -5  0.58434 -0.43695 -3.11614 -0.8749E+01 -0.4887E-12  0.8749E+01
  1 -1  5  0.58434 -0.43695  3.11614 -0.8749E+01 -0.5551E-14  0.8749E+01
  1  1 -5  0.58434  0.43695 -3.11614  0.8749E+01  0.5262E-13  0.8749E+01
  1  1  5  0.58434  0.43695  3.11614  0.8749E+01  0.4501E-12  0.8749E+01
 -5 -3  0 -2.92172 -1.31085  0.00000  0.1421E-13  0.2905E-12  0.2908E-12
 -5  3  0 -2.92172  1.31085  0.00000  0.3686E-13  0.4680E-13  0.5957E-13
  5 -3  0  2.92172 -1.31085  0.00000  0.3686E-13 -0.4680E-13  0.5957E-13
  5  3  0  2.92172  1.31085  0.00000  0.1421E-13 -0.2905E-12  0.2908E-12
 -5 -1 -2 -2.92172 -0.43695 -1.24645  0.6431E+01 -0.1503E-12  0.6431E+01
 -5 -1  2 -2.92172 -0.43695  1.24645 -0.6431E+01 -0.1137E-12  0.6431E+01
 -5  1 -2 -2.92172  0.43695 -1.24645 -0.6431E+01 -0.3775E-13  0.6431E+01
 -5  1  2 -2.92172  0.43695  1.24645  0.6431E+01 -0.1332E-13  0.6431E+01
  5 -1 -2  2.92172 -0.43695 -1.24645  0.6431E+01  0.1332E-13  0.6431E+01
  5 -1  2  2.92172 -0.43695  1.24645 -0.6431E+01  0.3775E-13  0.6431E+01
  5  1 -2  2.92172  0.43695 -1.24645 -0.6431E+01  0.1137E-12  0.6431E+01
  5  1  2  2.92172  0.43695  1.24645  0.6431E+01  0.1503E-12  0.6431E+01
 -3 -6 -1 -1.75303 -2.62169 -0.62323  0.6254E+01  0.1345E-11  0.6254E+01
 -3 -6  1 -1.75303 -2.62169  0.62323  0.6254E+01  0.1644E-11  0.6254E+01
 -3  6 -1 -1.75303  2.62169 -0.62323  0.6254E+01  0.2099E-11  0.6254E+01
 -3  6  1 -1.75303  2.62169  0.62323  0.6254E+01  0.2430E-11  0.6254E+01
  3 -6 -1  1.75303 -2.62169 -0.62323  0.6254E+01 -0.2430E-11  0.6254E+01
  3 -6  1  1.75303 -2.62169  0.62323  0.6254E+01 -0.2099E-11  0.6254E+01
  3  6 -1  1.75303  2.62169 -0.62323  0.6254E+01 -0.1644E-11  0.6254E+01
  3  6  1  1.75303  2.62169  0.62323  0.6254E+01 -0.1345E-11  0.6254E+01
  0 -6 -3  0.00000 -2.62169 -1.86968  0.3575E-13 -0.3151E-12  0.3171E-12
  0 -6  3  0.00000 -2.62169  1.86968 -0.9992E-14  0.5174E-12  0.5175E-12
  0  6 -3  0.00000  2.62169 -1.86968 -0.9992E-14 -0.5174E-12  0.5175E-12
  0  6  3  0.00000  2.62169  1.86968  0.3575E-13  0.3151E-12  0.3171E-12
  0 -2 -5  0.00000 -0.87390 -3.11614 -0.4219E-14 -0.5962E-12  0.5962E-12
  0 -2  5  0.00000 -0.87390  3.11614 -0.1399E-13  0.8968E-12  0.8969E-12
  0  2 -5  0.00000  0.87390 -3.11614 -0.1399E-13 -0.8968E-12  0.8969E-12
  0  2  5  0.00000  0.87390  3.11614 -0.4219E-14  0.5962E-12  0.5962E-12
 -4 -5 -1 -2.33738 -2.18474 -0.62323 -0.1299E+01  0.3508E-12  0.1299E+01
 -4 -5  1 -2.33738 -2.18474  0.62323  0.1299E+01  0.2114E-12  0.1299E+01
 -4  5 -1 -2.33738  2.18474 -0.62323  0.1299E+01 -0.5840E-13  0.1299E+01
 -4  5  1 -2.33738  2.18474  0.62323 -0.1299E+01 -0.1679E-12  0.1299E+01
  4 -5 -1  2.33738 -2.18474 -0.62323 -0.1299E+01  0.1679E-12  0.1299E+01
  4 -5  1  2.33738 -2.18474  0.62323  0.1299E+01  0.5840E-13  0.1299E+01
  4  5 -1  2.33738  2.18474 -0.62323  0.1299E+01 -0.2114E-12  0.1299E+01
  4  5  1  2.33738  2.18474  0.62323 -0.1299E+01 -0.3508E-12  0.1299E+01
 -2 -4 -4 -1.16869 -1.74780 -2.49291 -0.6585E+01 -0.1772E-12  0.6585E+01
 -2 -4  4 -1.16869 -1.74780  2.49291 -0.6585E+01 -0.2306E-11  0.6585E+01
 -2  4 -4 -1.16869  1.74780 -2.49291 -0.6585E+01  0.2176E-12  0.6585E+01
 -2  4  4 -1.16869  1.74780  2.49291 -0.6585E+01 -0.1904E-11  0.6585E+01
  2 -4 -4  1.16869 -1.74780 -2.49291 -0.6585E+01  0.1904E-11  0.6585E+01
  2 -4  4  1.16869 -1.74780  2.49291 -0.6585E+01 -0.2176E-12  0.6585E+01
  2  4 -4  1.16869  1.74780 -2.49291 -0.6585E+01  0.2306E-11  0.6585E+01
  2  4  4  1.16869  1.74780  2.49291 -0.6585E+01  0.1772E-12  0.6585E+01
 -5 -3 -1 -2.92172 -1.31085 -0.62323  0.3857E+01  0.7128E-12  0.3857E+01
 -5 -3  1 -2.92172 -1.31085  0.62323  0.3857E+01  0.5769E-12  0.3857E+01
 -5  3 -1 -2.92172  1.31085 -0.62323 -0.3857E+01 -0.3405E-12  0.3857E+01
 -5  3  1 -2.92172  1.31085  0.62323 -0.3857E+01 -0.3648E-12  0.3857E+01
  5 -3 -1  2.92172 -1.31085 -0.62323 -0.3857E+01  0.3648E-12  0.3857E+01
  5 -3  1  2.92172 -1.31085  0.62323 -0.3857E+01  0.3405E-12  0.3857E+01
  5  3 -1  2.92172  1.31085 -0.62323  0.3857E+01 -0.5769E-12  0.3857E+01
  5  3  1  2.92172  1.31085  0.62323  0.3857E+01 -0.7128E-12  0.3857E+01
 -4 -3 -3 -2.33738 -1.31085 -1.86968  0.2754E+01  0.3367E-12  0.2754E+01
 -4 -3  3 -2.33738 -1.31085  1.86968 -0.2754E+01  0.3069E-12  0.2754E+01
 -4  3 -3 -2.33738  1.31085 -1.86968 -0.2754E+01 -0.2442E-13  0.2754E+01
 -4  3  3 -2.33738  1.31085  1.86968  0.2754E+01 -0.2220E-13  0.2754E+01
  4 -3 -3  2.33738 -1.31085 -1.86968  0.2754E+01  0.2220E-13  0.2754E+01
  4 -3  3  2.33738 -1.31085  1.86968 -0.2754E+01  0.2442E-13  0.2754E+01
  4  3 -3  2.33738  1.31085 -1.86968 -0.2754E+01 -0.3069E-12  0.2754E+01
  4  3  3  2.33738  1.31085  1.86968  0.2754E+01 -0.3367E-12  0.2754E+01
 -1 -6 -3 -0.58434 -2.62169 -1.86968 -0.3111E+01 -0.5600E-12  0.3111E+01
 -1 -6  3 -0.58434 -2.62169  1.86968 -0.3111E+01  0.2593E-12  0.3111E+01
 -1  6 -3 -0.58434  2.62169 -1.86968 -0.3111E+01  0.4987E-12  0.3111E+01
 -1  6  3 -0.58434  2.62169  1.86968 -0.3111E+01  0.1332E-11  0.3111E+01
  1 -6 -3  0.58434 -2.62169 -1.86968 -0.3111E+01 -0.1332E-11  0.3111E+01
  1 -6  3  0.58434 -2.62169  1.86968 -0.3111E+01 -0.4987E-12  0.3111E+01
  1  6 -3  0.58434  2.62169 -1.86968 -0.3111E+01 -0.2593E-12  0.3111E+01
  1  6  3  0.58434  2.62169  1.86968 -0.3111E+01  0.5600E-12  0.3111E+01
 -2 -7  0 -1.16869 -3.05864  0.00000  0.8350E+00 -0.2931E-12  0.8350E+00
 -2  7  0 -1.16869  3.05864  0.00000 -0.8350E+00 -0.1410E-12  0.8350E+00
  2 -7  0  1.16869 -3.05864  0.00000 -0.8350E+00  0.1410E-12  0.8350E+00
  2  7  0  1.16869  3.05864  0.00000  0.8350E+00  0.2931E-12  0.8350E+00
 -1 -2 -5 -0.58434 -0.87390 -3.11614 -0.3438E+01  0.1449E-12  0.3438E+01
 -1 -2  5 -0.58434 -0.87390  3.11614 -0.3438E+01  0.1555E-11  0.3438E+01
 -1  2 -5 -0.58434  0.87390 -3.11614 -0.3438E+01 -0.5516E-12  0.3438E+01
 -1  2  5 -0.58434  0.87390  3.11614 -0.3438E+01  0.8962E-12  0.3438E+01
  1 -2 -5  0.58434 -0.87390 -3.11614 -0.3438E+01 -0.8962E-12  0.3438E+01
  1 -2  5  0.58434 -0.87390  3.11614 -0.3438E+01  0.5516E-12  0.3438E+01
  1  2 -5  0.58434  0.87390 -3.11614 -0.3438E+01 -0.1555E-11  0.3438E+01
  1  2  5  0.58434  0.87390  3.11614 -0.3438E+01 -0.1449E-12  0.3438E+01
 -5 -2 -2 -2.92172 -0.87390 -1.24645  0.1206E+02  0.3065E-11  0.1206E+02
 -5 -2  2 -2.92172 -0.87390  1.24645 -0.1206E+02  0.2016E-11  0.1206E+02
 -5  2 -2 -2.92172  0.87390 -1.24645  0.1206E+02  0.2250E-11  0.1206E+02
 -5  2  2 -2.92172  0.87390  1.24645 -0.1206E+02  0.1200E-11  0.1206E+02
  5 -2 -2  2.92172 -0.87390 -1.24645 -0.1206E+02 -0.1200E-11  0.1206E+02
  5 -2  2  2.92172 -0.87390  1.24645  0.1206E+02 -0.2250E-11  0.1206E+02
  5  2 -2  2.92172  0.87390 -1.24645 -0.1206E+02 -0.2016E-11  0.1206E+02
  5  2  2  2.92172  0.87390  1.24645  0.1206E+02 -0.3065E-11  0.1206E+02
  0 -7 -2  0.00000 -3.05864 -1.24645 -0.1688E-13 -0.2198E-12  0.2205E-12
  0 -7  2  0.00000 -3.05864  1.24645  0.1310E-13 -0.1048E-12  0.1056E-12
  0  7 -2  0.00000  3.05864 -1.24645  0.1310E-13  0.1048E-12  0.1056E-12
  0  7  2  0.00000  3.05864  1.24645 -0.1688E-13  0.2198E-12  0.2205E-12
  0 -5 -4  0.00000 -2.18474 -2.49291  0.3675E-13  0.2309E-12  0.2338E-12
  0 -5  4  0.00000 -2.18474  2.49291 -0.3553E-14 -0.2398E-13  0.2424E-13
  0  5 -4  0.00000  2.18474 -2.49291 -0.3553E-14  0.2398E-13  0.2424E-13
  0  5  4  0.00000  2.18474  2.49291  0.3675E-13 -0.2309E-12  0.2338E-12
 -3 -3 -4 -1.75303 -1.31085 -2.49291  0.1407E+02  0.5226E-12  0.1407E+02
 -3 -3  4 -1.75303 -1.31085  2.49291 -0.1407E+02  0.2812E-12  0.1407E+02
 -3  3 -4 -1.75303  1.31085 -2.49291 -0.1407E+02 -0.5285E-13  0.1407E+02
 -3  3  4 -1.75303  1.31085  2.49291  0.1407E+02 -0.1916E-12  0.1407E+02
  3 -3 -4  1.75303 -1.31085 -2.49291  0.1407E+02  0.1916E-12  0.1407E+02
  3 -3  4  1.75303 -1.31085  2.49291 -0.1407E+02  0.5285E-13  0.1407E+02
  3  3 -4  1.75303  1.31085 -2.49291 -0.1407E+02 -0.2812E-12  0.1407E+02
  3  3  4  1.75303  1.31085  2.49291  0.1407E+02 -0.5226E-12  0.1407E+02
 -2  0 -5 -1.16869  0.00000 -3.11614  0.5169E-01 -0.1558E-11  0.5169E-01
 -2  0  5 -1.16869  0.00000  3.11614 -0.5169E-01 -0.2558E-12  0.5169E-01
  2  0 -5  1.16869  0.00000 -3.11614 -0.5169E-01  0.2558E-12  0.5169E-01
  2  0  5  1.16869  0.00000  3.11614  0.5169E-01  0.1558E-11  0.5169E-01
 -2 -7 -1 -1.16869 -3.05864 -0.62323 -0.1278E+01 -0.3391E-12  0.1278E+01
 -2 -7  1 -1.16869 -3.05864  0.62323  0.1278E+01 -0.1219E-12  0.1278E+01
 -2  7 -1 -1.16869  3.05864 -0.62323  0.1278E+01 -0.2998E-12  0.1278E+01
[...]
  9-13 10  5.25910 -5.68033  6.23227  0.3317E-01  0.6854E-15  0.3317E-01
  9 13-10  5.25910  5.68033 -6.23227  0.3317E-01  0.9944E-15  0.3317E-01
  9 13 10  5.25910  5.68033  6.23227 -0.3317E-01 -0.1779E-14  0.3317E-01
 -4-18 -9 -2.33738 -7.86508 -5.60905 -0.3931E-01  0.6297E-15  0.3931E-01
 -4-18  9 -2.33738 -7.86508  5.60905  0.3931E-01 -0.4942E-15  0.3931E-01
 -4 18 -9 -2.33738  7.86508 -5.60905 -0.3931E-01  0.3221E-15  0.3931E-01
 -4 18  9 -2.33738  7.86508  5.60905  0.3931E-01  0.6454E-16  0.3931E-01
  4-18 -9  2.33738 -7.86508 -5.60905  0.3931E-01 -0.6454E-16  0.3931E-01
  4-18  9  2.33738 -7.86508  5.60905 -0.3931E-01 -0.3221E-15  0.3931E-01
  4 18 -9  2.33738  7.86508 -5.60905  0.3931E-01  0.4942E-15  0.3931E-01
  4 18  9  2.33738  7.86508  5.60905 -0.3931E-01 -0.6297E-15  0.3931E-01
 -4-14-12 -2.33738 -6.11728 -7.47873  0.2842E-01 -0.1756E-15  0.2842E-01
 -4-14 12 -2.33738 -6.11728  7.47873  0.2842E-01 -0.7824E-16  0.2842E-01
 -4 14-12 -2.33738  6.11728 -7.47873  0.2842E-01 -0.1719E-15  0.2842E-01
 -4 14 12 -2.33738  6.11728  7.47873  0.2842E-01 -0.9997E-15  0.2842E-01
  4-14-12  2.33738 -6.11728 -7.47873  0.2842E-01  0.9997E-15  0.2842E-01
  4-14 12  2.33738 -6.11728  7.47873  0.2842E-01  0.1719E-15  0.2842E-01
  4 14-12  2.33738  6.11728 -7.47873  0.2842E-01  0.7824E-16  0.2842E-01
  4 14 12  2.33738  6.11728  7.47873  0.2842E-01  0.1756E-15  0.2842E-01
-16 -3 -5 -9.34951 -1.31085 -3.11614  0.1316E-01  0.6351E-16  0.1316E-01
-16 -3  5 -9.34951 -1.31085  3.11614 -0.1316E-01 -0.1949E-15  0.1316E-01
-16  3 -5 -9.34951  1.31085 -3.11614 -0.1316E-01  0.3698E-15  0.1316E-01
-16  3  5 -9.34951  1.31085  3.11614  0.1316E-01 -0.3220E-15  0.1316E-01
 16 -3 -5  9.34951 -1.31085 -3.11614  0.1316E-01  0.3220E-15  0.1316E-01
 16 -3  5  9.34951 -1.31085  3.11614 -0.1316E-01 -0.3698E-15  0.1316E-01
 16  3 -5  9.34951  1.31085 -3.11614 -0.1316E-01  0.1949E-15  0.1316E-01
 16  3  5  9.34951  1.31085  3.11614  0.1316E-01 -0.6351E-16  0.1316E-01
-17 -1  0 -9.93385 -0.43695  0.00000  0.2255E-16  0.8759E-16  0.9045E-16
-17  1  0 -9.93385  0.43695  0.00000  0.3673E-17  0.2459E-15  0.2459E-15
 17 -1  0  9.93385 -0.43695  0.00000  0.3673E-17 -0.2459E-15  0.2459E-15
 17  1  0  9.93385  0.43695  0.00000  0.2255E-16 -0.8759E-16  0.9045E-16
 -5-20 -6 -2.92172 -8.73898 -3.73936  0.4200E-01  0.1068E-14  0.4200E-01
 -5-20  6 -2.92172 -8.73898  3.73936 -0.4200E-01  0.6365E-15  0.4200E-01
 -5 20 -6 -2.92172  8.73898 -3.73936  0.4200E-01 -0.4967E-15  0.4200E-01
 -5 20  6 -2.92172  8.73898  3.73936 -0.4200E-01 -0.1418E-15  0.4200E-01
  5-20 -6  2.92172 -8.73898 -3.73936 -0.4200E-01  0.1418E-15  0.4200E-01
  5-20  6  2.92172 -8.73898  3.73936  0.4200E-01  0.4967E-15  0.4200E-01
  5 20 -6  2.92172  8.73898 -3.73936 -0.4200E-01 -0.6365E-15  0.4200E-01
  5 20  6  2.92172  8.73898  3.73936  0.4200E-01 -0.1068E-14  0.4200E-01
  0-15-12  0.00000 -6.55423 -7.47873 -0.5421E-18 -0.6896E-15  0.6896E-15
  0-15 12  0.00000 -6.55423  7.47873 -0.6722E-17 -0.1543E-15  0.1544E-15
  0 15-12  0.00000  6.55423 -7.47873 -0.6722E-17  0.1543E-15  0.1544E-15
  0 15 12  0.00000  6.55423  7.47873 -0.5421E-18  0.6896E-15  0.6896E-15
-15 -4 -7 -8.76516 -1.74780 -4.36259  0.2030E-01  0.1002E-15  0.2030E-01
-15 -4  7 -8.76516 -1.74780  4.36259  0.2030E-01 -0.1349E-14  0.2030E-01
-15  4 -7 -8.76516  1.74780 -4.36259  0.2030E-01  0.9340E-16  0.2030E-01
-15  4  7 -8.76516  1.74780  4.36259  0.2030E-01 -0.1277E-14  0.2030E-01
 15 -4 -7  8.76516 -1.74780 -4.36259  0.2030E-01  0.1277E-14  0.2030E-01
 15 -4  7  8.76516 -1.74780  4.36259  0.2030E-01 -0.9340E-16  0.2030E-01
 15  4 -7  8.76516  1.74780 -4.36259  0.2030E-01  0.1349E-14  0.2030E-01
 15  4  7  8.76516  1.74780  4.36259  0.2030E-01 -0.1002E-15  0.2030E-01
 -6-17 -9 -3.50607 -7.42813 -5.60905  0.8028E-02 -0.1059E-14  0.8028E-02
 -6-17  9 -3.50607 -7.42813  5.60905 -0.8028E-02  0.1133E-14  0.8028E-02
 -6 17 -9 -3.50607  7.42813 -5.60905 -0.8028E-02  0.6105E-15  0.8028E-02
 -6 17  9 -3.50607  7.42813  5.60905  0.8028E-02 -0.1295E-14  0.8028E-02
  6-17 -9  3.50607 -7.42813 -5.60905  0.8028E-02  0.1295E-14  0.8028E-02
  6-17  9  3.50607 -7.42813  5.60905 -0.8028E-02 -0.6105E-15  0.8028E-02
  6 17 -9  3.50607  7.42813 -5.60905 -0.8028E-02 -0.1133E-14  0.8028E-02
  6 17  9  3.50607  7.42813  5.60905  0.8028E-02  0.1059E-14  0.8028E-02
 -3-16-11 -1.75303 -6.99118 -6.85550 -0.3285E-01 -0.7391E-15  0.3285E-01
 -3-16 11 -1.75303 -6.99118  6.85550 -0.3285E-01 -0.1191E-15  0.3285E-01
 -3 16-11 -1.75303  6.99118 -6.85550 -0.3285E-01  0.1243E-15  0.3285E-01
 -3 16 11 -1.75303  6.99118  6.85550 -0.3285E-01  0.2582E-15  0.3285E-01
  3-16-11  1.75303 -6.99118 -6.85550 -0.3285E-01 -0.2582E-15  0.3285E-01
  3-16 11  1.75303 -6.99118  6.85550 -0.3285E-01 -0.1243E-15  0.3285E-01
  3 16-11  1.75303  6.99118 -6.85550 -0.3285E-01  0.1191E-15  0.3285E-01
  3 16 11  1.75303  6.99118  6.85550 -0.3285E-01  0.7391E-15  0.3285E-01
 -5-21 -4 -2.92172 -9.17593 -2.49291  0.2633E-02 -0.6598E-15  0.2633E-02
 -5-21  4 -2.92172 -9.17593  2.49291 -0.2633E-02  0.1231E-15  0.2633E-02
 -5 21 -4 -2.92172  9.17593 -2.49291 -0.2633E-02 -0.8270E-15  0.2633E-02
 -5 21  4 -2.92172  9.17593  2.49291  0.2633E-02  0.6913E-15  0.2633E-02
  5-21 -4  2.92172 -9.17593 -2.49291  0.2633E-02 -0.6913E-15  0.2633E-02
  5-21  4  2.92172 -9.17593  2.49291 -0.2633E-02  0.8270E-15  0.2633E-02
  5 21 -4  2.92172  9.17593 -2.49291 -0.2633E-02 -0.1231E-15  0.2633E-02
  5 21  4  2.92172  9.17593  2.49291  0.2633E-02  0.6598E-15  0.2633E-02
 -1-22 -4 -0.58434 -9.61287 -2.49291  0.7759E-02 -0.5999E-15  0.7759E-02
 -1-22  4 -0.58434 -9.61287  2.49291 -0.7759E-02  0.5709E-15  0.7759E-02
 -1 22 -4 -0.58434  9.61287 -2.49291  0.7759E-02 -0.5656E-15  0.7759E-02
 -1 22  4 -0.58434  9.61287  2.49291 -0.7759E-02  0.7499E-15  0.7759E-02
  1-22 -4  0.58434 -9.61287 -2.49291 -0.7759E-02 -0.7499E-15  0.7759E-02
  1-22  4  0.58434 -9.61287  2.49291  0.7759E-02  0.5656E-15  0.7759E-02
  1 22 -4  0.58434  9.61287 -2.49291 -0.7759E-02 -0.5709E-15  0.7759E-02
  1 22  4  0.58434  9.61287  2.49291  0.7759E-02  0.5999E-15  0.7759E-02
-11 -3-12 -6.42779 -1.31085 -7.47873 -0.1443E-01  0.4355E-16  0.1443E-01
-11 -3 12 -6.42779 -1.31085  7.47873  0.1443E-01 -0.3824E-15  0.1443E-01
-11  3-12 -6.42779  1.31085 -7.47873  0.1443E-01 -0.8555E-15  0.1443E-01
-11  3 12 -6.42779  1.31085  7.47873 -0.1443E-01  0.4009E-15  0.1443E-01
 11 -3-12  6.42779 -1.31085 -7.47873 -0.1443E-01 -0.4009E-15  0.1443E-01
 11 -3 12  6.42779 -1.31085  7.47873  0.1443E-01  0.8555E-15  0.1443E-01
 11  3-12  6.42779  1.31085 -7.47873  0.1443E-01  0.3824E-15  0.1443E-01
 11  3 12  6.42779  1.31085  7.47873 -0.1443E-01 -0.4355E-16  0.1443E-01
 -3-22 -3 -1.75303 -9.61287 -1.86968  0.3246E-01 -0.1292E-14  0.3246E-01
 -3-22  3 -1.75303 -9.61287  1.86968  0.3246E-01 -0.1545E-14  0.3246E-01
 -3 22 -3 -1.75303  9.61287 -1.86968  0.3246E-01  0.7659E-15  0.3246E-01
 -3 22  3 -1.75303  9.61287  1.86968  0.3246E-01  0.3208E-15  0.3246E-01
  3-22 -3  1.75303 -9.61287 -1.86968  0.3246E-01 -0.3208E-15  0.3246E-01
  3-22  3  1.75303 -9.61287  1.86968  0.3246E-01 -0.7659E-15  0.3246E-01
  3 22 -3  1.75303  9.61287 -1.86968  0.3246E-01  0.1545E-14  0.3246E-01
  3 22  3  1.75303  9.61287  1.86968  0.3246E-01  0.1292E-14  0.3246E-01
 -5 -4-15 -2.92172 -1.74780 -9.34841  0.1273E-01  0.1004E-15  0.1273E-01
 -5 -4 15 -2.92172 -1.74780  9.34841  0.1273E-01  0.6118E-15  0.1273E-01
 -5  4-15 -2.92172  1.74780 -9.34841  0.1273E-01  0.2023E-15  0.1273E-01
 -5  4 15 -2.92172  1.74780  9.34841  0.1273E-01  0.8030E-15  0.1273E-01
  5 -4-15  2.92172 -1.74780 -9.34841  0.1273E-01 -0.8030E-15  0.1273E-01
  5 -4 15  2.92172 -1.74780  9.34841  0.1273E-01 -0.2023E-15  0.1273E-01
  5  4-15  2.92172  1.74780 -9.34841  0.1273E-01 -0.6118E-15  0.1273E-01
  5  4 15  2.92172  1.74780  9.34841  0.1273E-01 -0.1004E-15  0.1273E-01
 -6-18 -8 -3.50607 -7.86508 -4.98582  0.4113E-02  0.5781E-15  0.4113E-02
 -6-18  8 -3.50607 -7.86508  4.98582  0.4113E-02  0.5315E-15  0.4113E-02
 -6 18 -8 -3.50607  7.86508 -4.98582  0.4113E-02  0.2244E-16  0.4113E-02
 -6 18  8 -3.50607  7.86508  4.98582  0.4113E-02  0.4170E-15  0.4113E-02
  6-18 -8  3.50607 -7.86508 -4.98582  0.4113E-02 -0.4170E-15  0.4113E-02
  6-18  8  3.50607 -7.86508  4.98582  0.4113E-02 -0.2244E-16  0.4113E-02
  6 18 -8  3.50607  7.86508 -4.98582  0.4113E-02 -0.5315E-15  0.4113E-02
  6 18  8  3.50607  7.86508  4.98582  0.4113E-02 -0.5781E-15  0.4113E-02
-10-17 -5 -5.84344 -7.42813 -3.11614  0.2540E-01 -0.9782E-15  0.2540E-01
-10-17  5 -5.84344 -7.42813  3.11614 -0.2540E-01  0.7164E-16  0.2540E-01
-10 17 -5 -5.84344  7.42813 -3.11614 -0.2540E-01  0.6342E-15  0.2540E-01
-10 17  5 -5.84344  7.42813  3.11614  0.2540E-01  0.2644E-15  0.2540E-01
 10-17 -5  5.84344 -7.42813 -3.11614  0.2540E-01 -0.2644E-15  0.2540E-01
 10-17  5  5.84344 -7.42813  3.11614 -0.2540E-01 -0.6342E-15  0.2540E-01
 10 17 -5  5.84344  7.42813 -3.11614 -0.2540E-01 -0.7164E-16  0.2540E-01
 10 17  5  5.84344  7.42813  3.11614  0.2540E-01  0.9782E-15  0.2540E-01
 -9 -9-12 -5.25910 -3.93254 -7.47873 -0.2626E-01  0.9319E-15  0.2626E-01
 -9 -9 12 -5.25910 -3.93254  7.47873  0.2626E-01 -0.6843E-15  0.2626E-01
 -9  9-12 -5.25910  3.93254 -7.47873  0.2626E-01 -0.9612E-15  0.2626E-01
 -9  9 12 -5.25910  3.93254  7.47873 -0.2626E-01  0.2964E-15  0.2626E-01
  9 -9-12  5.25910 -3.93254 -7.47873 -0.2626E-01 -0.2964E-15  0.2626E-01
  9 -9 12  5.25910 -3.93254  7.47873  0.2626E-01  0.9612E-15  0.2626E-01
  9  9-12  5.25910  3.93254 -7.47873  0.2626E-01  0.6843E-15  0.2626E-01
  9  9 12  5.25910  3.93254  7.47873 -0.2626E-01 -0.9319E-15  0.2626E-01
-17  0 -1 -9.93385  0.00000 -0.62323 -0.2633E-01 -0.8424E-15  0.2633E-01
-17  0  1 -9.93385  0.00000  0.62323 -0.2633E-01 -0.1352E-14  0.2633E-01
 17  0 -1  9.93385  0.00000 -0.62323 -0.2633E-01  0.1352E-14  0.2633E-01
 17  0  1  9.93385  0.00000  0.62323 -0.2633E-01  0.8424E-15  0.2633E-01
-14 -2 -9 -8.18082 -0.87390 -5.60905  0.5469E-01  0.8908E-15  0.5469E-01
-14 -2  9 -8.18082 -0.87390  5.60905 -0.5469E-01  0.5068E-15  0.5469E-01
-14  2 -9 -8.18082  0.87390 -5.60905  0.5469E-01  0.7907E-15  0.5469E-01
-14  2  9 -8.18082  0.87390  5.60905 -0.5469E-01  0.4866E-15  0.5469E-01
 14 -2 -9  8.18082 -0.87390 -5.60905 -0.5469E-01 -0.4866E-15  0.5469E-01
 14 -2  9  8.18082 -0.87390  5.60905  0.5469E-01 -0.7907E-15  0.5469E-01
 14  2 -9  8.18082  0.87390 -5.60905 -0.5469E-01 -0.5068E-15  0.5469E-01
 14  2  9  8.18082  0.87390  5.60905  0.5469E-01 -0.8908E-15  0.5469E-01
-13-12 -6 -7.59647 -5.24339 -3.73936  0.1136E-01 -0.6963E-15  0.1136E-01
-13-12  6 -7.59647 -5.24339  3.73936 -0.1136E-01 -0.9683E-15  0.1136E-01
-13 12 -6 -7.59647  5.24339 -3.73936  0.1136E-01 -0.2744E-17  0.1136E-01
-13 12  6 -7.59647  5.24339  3.73936 -0.1136E-01 -0.1188E-14  0.1136E-01
 13-12 -6  7.59647 -5.24339 -3.73936 -0.1136E-01  0.1188E-14  0.1136E-01
 13-12  6  7.59647 -5.24339  3.73936  0.1136E-01  0.2744E-17  0.1136E-01
 13 12 -6  7.59647  5.24339 -3.73936 -0.1136E-01  0.9683E-15  0.1136E-01
 13 12  6  7.59647  5.24339  3.73936  0.1136E-01  0.6963E-15  0.1136E-01
-14-13  0 -8.18082 -5.68033  0.00000 -0.7505E-01 -0.2477E-14  0.7505E-01
-14 13  0 -8.18082  5.68033  0.00000  0.7505E-01  0.1471E-14  0.7505E-01
 14-13  0  8.18082 -5.68033  0.00000  0.7505E-01 -0.1471E-14  0.7505E-01
 14 13  0  8.18082  5.68033  0.00000 -0.7505E-01  0.2477E-14  0.7505E-01
-12 -4-11 -7.01213 -1.74780 -6.85550  0.4090E-01 -0.1112E-15  0.4090E-01
-12 -4 11 -7.01213 -1.74780  6.85550 -0.4090E-01  0.8281E-15  0.4090E-01
-12  4-11 -7.01213  1.74780 -6.85550  0.4090E-01 -0.1515E-15  0.4090E-01
-12  4 11 -7.01213  1.74780  6.85550 -0.4090E-01  0.8961E-15  0.4090E-01
 12 -4-11  7.01213 -1.74780 -6.85550 -0.4090E-01 -0.8961E-15  0.4090E-01
 12 -4 11  7.01213 -1.74780  6.85550  0.4090E-01  0.1515E-15  0.4090E-01
 12  4-11  7.01213  1.74780 -6.85550 -0.4090E-01 -0.8281E-15  0.4090E-01
 12  4 11  7.01213  1.74780  6.85550  0.4090E-01  0.1112E-15  0.4090E-01
 -9-18 -5 -5.25910 -7.86508 -3.11614  0.1928E-01 -0.2729E-15  0.1928E-01
 -9-18  5 -5.25910 -7.86508  3.11614  0.1928E-01 -0.6732E-15  0.1928E-01
 -9 18 -5 -5.25910  7.86508 -3.11614  0.1928E-01 -0.6767E-15  0.1928E-01
 -9 18  5 -5.25910  7.86508  3.11614  0.1928E-01 -0.2448E-15  0.1928E-01
  9-18 -5  5.25910 -7.86508 -3.11614  0.1928E-01  0.2448E-15  0.1928E-01
  9-18  5  5.25910 -7.86508  3.11614  0.1928E-01  0.6767E-15  0.1928E-01
  9 18 -5  5.25910  7.86508 -3.11614  0.1928E-01  0.6732E-15  0.1928E-01
  9 18  5  5.25910  7.86508  3.11614  0.1928E-01  0.2729E-15  0.1928E-01
  0-11-14  0.00000 -4.80644 -8.72518  0.2239E-16 -0.2523E-15  0.2533E-15
  0-11 14  0.00000 -4.80644  8.72518 -0.1019E-16 -0.2860E-15  0.2861E-15
  0 11-14  0.00000  4.80644 -8.72518 -0.1019E-16  0.2860E-15  0.2861E-15
  0 11 14  0.00000  4.80644  8.72518  0.2239E-16  0.2523E-15  0.2533E-15
 -1-15-12 -0.58434 -6.55423 -7.47873  0.1444E-01 -0.6342E-15  0.1444E-01
 -1-15 12 -0.58434 -6.55423  7.47873 -0.1444E-01 -0.8902E-15  0.1444E-01
 -1 15-12 -0.58434  6.55423 -7.47873 -0.1444E-01  0.4063E-15  0.1444E-01
 -1 15 12 -0.58434  6.55423  7.47873  0.1444E-01  0.1511E-14  0.1444E-01
  1-15-12  0.58434 -6.55423 -7.47873  0.1444E-01 -0.1511E-14  0.1444E-01
  1-15 12  0.58434 -6.55423  7.47873 -0.1444E-01 -0.4063E-15  0.1444E-01
  1 15-12  0.58434  6.55423 -7.47873 -0.1444E-01  0.8902E-15  0.1444E-01
  1 15 12  0.58434  6.55423  7.47873  0.1444E-01  0.6342E-15  0.1444E-01
 -4-19 -8 -2.33738 -8.30203 -4.98582  0.4663E-01 -0.6213E-15  0.4663E-01
 -4-19  8 -2.33738 -8.30203  4.98582  0.4663E-01  0.3230E-15  0.4663E-01
 -4 19 -8 -2.33738  8.30203 -4.98582 -0.4663E-01  0.4726E-15  0.4663E-01
 -4 19  8 -2.33738  8.30203  4.98582 -0.4663E-01 -0.1484E-16  0.4663E-01
  4-19 -8  2.33738 -8.30203 -4.98582 -0.4663E-01  0.1484E-16  0.4663E-01
  4-19  8  2.33738 -8.30203  4.98582 -0.4663E-01 -0.4726E-15  0.4663E-01
  4 19 -8  2.33738  8.30203 -4.98582  0.4663E-01 -0.3230E-15  0.4663E-01
  4 19  8  2.33738  8.30203  4.98582  0.4663E-01  0.6213E-15  0.4663E-01
-11-10-10 -6.42779 -4.36949 -6.23227  0.8157E-02 -0.1852E-15  0.8157E-02
-11-10 10 -6.42779 -4.36949  6.23227 -0.8157E-02 -0.8652E-15  0.8157E-02
-11 10-10 -6.42779  4.36949 -6.23227  0.8157E-02 -0.7544E-16  0.8157E-02
-11 10 10 -6.42779  4.36949  6.23227 -0.8157E-02 -0.7457E-15  0.8157E-02
 11-10-10  6.42779 -4.36949 -6.23227 -0.8157E-02  0.7457E-15  0.8157E-02
 11-10 10  6.42779 -4.36949  6.23227  0.8157E-02  0.7544E-16  0.8157E-02
 11 10-10  6.42779  4.36949 -6.23227 -0.8157E-02  0.8652E-15  0.8157E-02
 11 10 10  6.42779  4.36949  6.23227  0.8157E-02  0.1852E-15  0.8157E-02
-17 -1 -1 -9.93385 -0.43695 -0.62323  0.1395E-01  0.1672E-15  0.1395E-01
-17 -1  1 -9.93385 -0.43695  0.62323  0.1395E-01  0.7034E-16  0.1395E-01
-17  1 -1 -9.93385  0.43695 -0.62323 -0.1395E-01 -0.4337E-16  0.1395E-01
-17  1  1 -9.93385  0.43695  0.62323 -0.1395E-01 -0.9010E-16  0.1395E-01
 17 -1 -1  9.93385 -0.43695 -0.62323 -0.1395E-01  0.9010E-16  0.1395E-01
 17 -1  1  9.93385 -0.43695  0.62323 -0.1395E-01  0.4337E-16  0.1395E-01
 17  1 -1  9.93385  0.43695 -0.62323  0.1395E-01 -0.7034E-16  0.1395E-01
 17  1  1  9.93385  0.43695  0.62323  0.1395E-01 -0.1672E-15  0.1395E-01
 -2-13-13 -1.16869 -5.68033 -8.10196 -0.1209E-01 -0.7375E-16  0.1209E-01
 -2-13 13 -1.16869 -5.68033  8.10196  0.1209E-01  0.1192E-14  0.1209E-01
 -2 13-13 -1.16869  5.68033 -8.10196  0.1209E-01 -0.9979E-15  0.1209E-01
 -2 13 13 -1.16869  5.68033  8.10196 -0.1209E-01 -0.3189E-16  0.1209E-01
  2-13-13  1.16869 -5.68033 -8.10196 -0.1209E-01  0.3189E-16  0.1209E-01
  2-13 13  1.16869 -5.68033  8.10196  0.1209E-01  0.9979E-15  0.1209E-01
  2 13-13  1.16869  5.68033 -8.10196  0.1209E-01 -0.1192E-14  0.1209E-01
  2 13 13  1.16869  5.68033  8.10196 -0.1209E-01  0.7375E-16  0.1209E-01
 -7-20 -4 -4.09041 -8.73898 -2.49291  0.3649E-01  0.2336E-16  0.3649E-01
 -7-20  4 -4.09041 -8.73898  2.49291 -0.3649E-01 -0.5348E-16  0.3649E-01
 -7 20 -4 -4.09041  8.73898 -2.49291  0.3649E-01 -0.3088E-15  0.3649E-01
 -7 20  4 -4.09041  8.73898  2.49291 -0.3649E-01 -0.1676E-15  0.3649E-01
  7-20 -4  4.09041 -8.73898 -2.49291 -0.3649E-01  0.1676E-15  0.3649E-01
  7-20  4  4.09041 -8.73898  2.49291  0.3649E-01  0.3088E-15  0.3649E-01
  7 20 -4  4.09041  8.73898 -2.49291 -0.3649E-01  0.5348E-16  0.3649E-01
  7 20  4  4.09041  8.73898  2.49291  0.3649E-01 -0.2336E-16  0.3649E-01
 -4-21 -5 -2.33738 -9.17593 -3.11614 -0.4026E-02  0.6162E-15  0.4026E-02
 -4-21  5 -2.33738 -9.17593  3.11614  0.4026E-02 -0.2525E-15  0.4026E-02
 -4 21 -5 -2.33738  9.17593 -3.11614  0.4026E-02  0.8580E-15  0.4026E-02
 -4 21  5 -2.33738  9.17593  3.11614 -0.4026E-02 -0.5332E-15  0.4026E-02
  4-21 -5  2.33738 -9.17593 -3.11614 -0.4026E-02  0.5332E-15  0.4026E-02
  4-21  5  2.33738 -9.17593  3.11614  0.4026E-02 -0.8580E-15  0.4026E-02
  4 21 -5  2.33738  9.17593 -3.11614  0.4026E-02  0.2525E-15  0.4026E-02
  4 21  5  2.33738  9.17593  3.11614 -0.4026E-02 -0.6162E-15  0.4026E-02
-15-10 -3 -8.76516 -4.36949 -1.86968 -0.3249E-02 -0.1224E-15  0.3249E-02
-15-10  3 -8.76516 -4.36949  1.86968 -0.3249E-02 -0.1305E-14  0.3249E-02
-15 10 -3 -8.76516  4.36949 -1.86968 -0.3249E-02 -0.1107E-14  0.3249E-02
-15 10  3 -8.76516  4.36949  1.86968 -0.3249E-02 -0.1558E-14  0.3249E-02
 15-10 -3  8.76516 -4.36949 -1.86968 -0.3249E-02  0.1558E-14  0.3249E-02
 15-10  3  8.76516 -4.36949  1.86968 -0.3249E-02  0.1107E-14  0.3249E-02
 15 10 -3  8.76516  4.36949 -1.86968 -0.3249E-02  0.1305E-14  0.3249E-02
 15 10  3  8.76516  4.36949  1.86968 -0.3249E-02  0.1224E-15  0.3249E-02
 -4-22 -2 -2.33738 -9.61287 -1.24645 -0.3587E-01  0.4486E-15  0.3587E-01
 -4-22  2 -2.33738 -9.61287  1.24645 -0.3587E-01  0.1319E-14  0.3587E-01
 -4 22 -2 -2.33738  9.61287 -1.24645 -0.3587E-01 -0.7131E-15  0.3587E-01
 -4 22  2 -2.33738  9.61287  1.24645 -0.3587E-01 -0.4718E-15  0.3587E-01
  4-22 -2  2.33738 -9.61287 -1.24645 -0.3587E-01  0.4718E-15  0.3587E-01
  4-22  2  2.33738 -9.61287  1.24645 -0.3587E-01  0.7131E-15  0.3587E-01
  4 22 -2  2.33738  9.61287 -1.24645 -0.3587E-01 -0.1319E-14  0.3587E-01
  4 22  2  2.33738  9.61287  1.24645 -0.3587E-01 -0.4486E-15  0.3587E-01
-10 -7-12 -5.84344 -3.05864 -7.47873  0.1625E-01 -0.7650E-15  0.1625E-01
-10 -7 12 -5.84344 -3.05864  7.47873  0.1625E-01  0.2700E-15  0.1625E-01
-10  7-12 -5.84344  3.05864 -7.47873 -0.1625E-01  0.4921E-15  0.1625E-01
-10  7 12 -5.84344  3.05864  7.47873 -0.1625E-01 -0.4594E-15  0.1625E-01
 10 -7-12  5.84344 -3.05864 -7.47873 -0.1625E-01  0.4594E-15  0.1625E-01
 10 -7 12  5.84344 -3.05864  7.47873 -0.1625E-01 -0.4921E-15  0.1625E-01
 10  7-12  5.84344  3.05864 -7.47873  0.1625E-01 -0.2700E-15  0.1625E-01
 10  7 12  5.84344  3.05864  7.47873  0.1625E-01  0.7650E-15  0.1625E-01
  0  0-16  0.00000  0.00000 -9.97164  0.2924E-02  0.4415E-15  0.2924E-02
  0  0 16  0.00000  0.00000  9.97164  0.2924E-02 -0.4415E-15  0.2924E-02
-17 -2  0 -9.93385 -0.87390  0.00000  0.1203E-17 -0.6422E-15  0.6422E-15
-17  2  0 -9.93385  0.87390  0.00000 -0.4845E-18 -0.3504E-15  0.3504E-15
 17 -2  0  9.93385 -0.87390  0.00000 -0.4845E-18  0.3504E-15  0.3504E-15
 17  2  0  9.93385  0.87390  0.00000  0.1203E-17  0.6422E-15  0.6422E-15
 -4-17-10 -2.33738 -7.42813 -6.23227  0.4563E-01 -0.5476E-15  0.4563E-01
 -4-17 10 -2.33738 -7.42813  6.23227  0.4563E-01  0.4551E-15  0.4563E-01
 -4 17-10 -2.33738  7.42813 -6.23227 -0.4563E-01  0.1107E-15  0.4563E-01
 -4 17 10 -2.33738  7.42813  6.23227 -0.4563E-01 -0.3101E-15  0.4563E-01
  4-17-10  2.33738 -7.42813 -6.23227 -0.4563E-01  0.3101E-15  0.4563E-01
  4-17 10  2.33738 -7.42813  6.23227 -0.4563E-01 -0.1107E-15  0.4563E-01
  4 17-10  2.33738  7.42813 -6.23227  0.4563E-01 -0.4551E-15  0.4563E-01
  4 17 10  2.33738  7.42813  6.23227  0.4563E-01  0.5476E-15  0.4563E-01
 TTTTTTTTTTTTTTTTTTTTTTTTTTTTTT XFAC        TELAPSE      178.80 TCPU      173.10
 ENDPROP   
 TTTTTTTTTTTTTTTTTTTTTTTTTTTTTT END         TELAPSE      178.80 TCPU      173.10
 EEEEEEEEEE TERMINATION  DATE 29 04 2017 TIME 10:40:10.1
NODE    0 CPU TIME =       173.103
    TOTAL CPU TIME =     24809.707
